formula,Elements,Metal_NonMetal,Electronegativity,Num_Elements,Atomic_Composition,Is_Metal
NpPd2Bi3,"['Np', 'Pd', 'Bi']","['Np - Metal', 'Pd - Metal', 'Bi - Metal']","[1.36, 2.2, 2.02]",3,"{'Np': 1.0, 'Pd': 2.0, 'Bi': 3.0}",TRUE
BrRu5Tl7,"['Br', 'Ru', 'Tl']","['Br - Non-Metal', 'Ru - Metal', 'Tl - Metal']","[2.96, 2.2, 1.62]",3,"{'Br': 1.0, 'Ru': 5.0, 'Tl': 7.0}",FALSE
Pt2P5,"['Pt', 'P']","['Pt - Metal', 'P - Non-Metal']","[2.28, 2.19]",2,"{'Pt': 2.0, 'P': 5.0}",FALSE
YbNp2As3,"['Yb', 'Np', 'As']","['Yb - Metal', 'Np - Metal', 'As - Non-Metal']","[1.1, 1.36, 2.18]",3,"{'Yb': 1.0, 'Np': 2.0, 'As': 3.0}",TRUE
CeSe2I2Bi3,"['Ce', 'Se', 'I', 'Bi']","['Ce - Metal', 'Se - Non-Metal', 'I - Non-Metal', 'Bi - Metal']","[1.12, 2.55, 2.66, 2.02]",4,"{'Ce': 1.0, 'Se': 2.0, 'I': 2.0, 'Bi': 3.0}",TRUE
Os2S3Sb3,"['Os', 'S', 'Sb']","['Os - Metal', 'S - Non-Metal', 'Sb - Non-Metal']","[2.2, 2.58, 2.05]",3,"{'Os': 2.0, 'S': 3.0, 'Sb': 3.0}",FALSE
InOs,"['In', 'Os']","['In - Metal', 'Os - Metal']","[1.78, 2.2]",2,"{'In': 1.0, 'Os': 1.0}",TRUE
NdBr2,"['Nd', 'Br']","['Nd - Metal', 'Br - Non-Metal']","[1.14, 2.96]",2,"{'Nd': 1.0, 'Br': 2.0}",TRUE
ErPaPd2Te6,"['Er', 'Pa', 'Pd', 'Te']","['Er - Metal', 'Pa - Metal', 'Pd - Metal', 'Te - Non-Metal']","[1.24, 1.5, 2.2, 2.1]",4,"{'Er': 1.0, 'Pa': 1.0, 'Pd': 2.0, 'Te': 6.0}",TRUE
TeSi4Cu4,"['Te', 'Si', 'Cu']","['Te - Non-Metal', 'Si - Non-Metal', 'Cu - Metal']","[2.1, 1.9, 1.9]",3,"{'Te': 1.0, 'Si': 4.0, 'Cu': 4.0}",TRUE
BkRe2Fm2Mn3Kr3,"['Bk', 'Re', 'Fm', 'Mn', 'Kr']","['Bk - Metal', 'Re - Metal', 'Fm - Metal', 'Mn - Metal', 'Kr - Non-Metal']","[1.3, 1.9, 1.3, 1.55, 3.0]",5,"{'Bk': 1.0, 'Re': 2.0, 'Fm': 2.0, 'Mn': 3.0, 'Kr': 3.0}",TRUE
LiBrCr4Ag6,"['Li', 'Br', 'Cr', 'Ag']","['Li - Metal', 'Br - Non-Metal', 'Cr - Metal', 'Ag - Metal']","[0.98, 2.96, 1.66, 1.93]",4,"{'Li': 1.0, 'Br': 1.0, 'Cr': 4.0, 'Ag': 6.0}",TRUE
UAt3As4,"['U', 'At', 'As']","['U - Metal', 'At - Non-Metal', 'As - Non-Metal']","[1.38, 2.2, 2.18]",3,"{'U': 1.0, 'At': 3.0, 'As': 4.0}",TRUE
NbSi3,"['Nb', 'Si']","['Nb - Metal', 'Si - Non-Metal']","[1.6, 1.9]",2,"{'Nb': 1.0, 'Si': 3.0}",TRUE
ErTaPo2,"['Er', 'Ta', 'Po']","['Er - Metal', 'Ta - Metal', 'Po - Non-Metal']","[1.24, 1.5, 2.0]",3,"{'Er': 1.0, 'Ta': 1.0, 'Po': 2.0}",TRUE
Te3Pt3Ge4,"['Te', 'Pt', 'Ge']","['Te - Non-Metal', 'Pt - Metal', 'Ge - Non-Metal']","[2.1, 2.28, 2.01]",3,"{'Te': 3.0, 'Pt': 3.0, 'Ge': 4.0}",FALSE
ZrCeI3,"['Zr', 'Ce', 'I']","['Zr - Metal', 'Ce - Metal', 'I - Non-Metal']","[1.33, 1.12, 2.66]",3,"{'Zr': 1.0, 'Ce': 1.0, 'I': 3.0}",TRUE
IPb,"['I', 'Pb']","['I - Non-Metal', 'Pb - Metal']","[2.66, 2.33]",2,"{'I': 1.0, 'Pb': 1.0}",FALSE
SCr5,"['S', 'Cr']","['S - Non-Metal', 'Cr - Metal']","[2.58, 1.66]",2,"{'S': 1.0, 'Cr': 5.0}",FALSE
DyPoPt3,"['Dy', 'Po', 'Pt']","['Dy - Metal', 'Po - Non-Metal', 'Pt - Metal']","[1.22, 2.0, 2.28]",3,"{'Dy': 1.0, 'Po': 1.0, 'Pt': 3.0}",TRUE
PBrCr6,"['P', 'Br', 'Cr']","['P - Non-Metal', 'Br - Non-Metal', 'Cr - Metal']","[2.19, 2.96, 1.66]",3,"{'P': 1.0, 'Br': 1.0, 'Cr': 6.0}",FALSE
RnSi2,"['Rn', 'Si']","['Rn - Non-Metal', 'Si - Non-Metal']","[2.2, 1.9]",2,"{'Rn': 1.0, 'Si': 2.0}",TRUE
TiRe2Po7,"['Ti', 'Re', 'Po']","['Ti - Metal', 'Re - Metal', 'Po - Non-Metal']","[1.54, 1.9, 2.0]",3,"{'Ti': 1.0, 'Re': 2.0, 'Po': 7.0}",TRUE
N2Os5,"['N', 'Os']","['N - Non-Metal', 'Os - Metal']","[3.04, 2.2]",2,"{'N': 2.0, 'Os': 5.0}",FALSE
ReHg2S6,"['Re', 'Hg', 'S']","['Re - Metal', 'Hg - Metal', 'S - Non-Metal']","[1.9, 2.0, 2.58]",3,"{'Re': 1.0, 'Hg': 2.0, 'S': 6.0}",FALSE
SeI2O3,"['Se', 'I', 'O']","['Se - Non-Metal', 'I - Non-Metal', 'O - Non-Metal']","[2.55, 2.66, 3.44]",3,"{'Se': 1.0, 'I': 2.0, 'O': 3.0}",FALSE
CaGeSe3Nb6,"['Ca', 'Ge', 'Se', 'Nb']","['Ca - Metal', 'Ge - Non-Metal', 'Se - Non-Metal', 'Nb - Metal']","[1.0, 2.01, 2.55, 1.6]",4,"{'Ca': 1.0, 'Ge': 1.0, 'Se': 3.0, 'Nb': 6.0}",TRUE
SRu4Cr5,"['S', 'Ru', 'Cr']","['S - Non-Metal', 'Ru - Metal', 'Cr - Metal']","[2.58, 2.2, 1.66]",3,"{'S': 1.0, 'Ru': 4.0, 'Cr': 5.0}",FALSE
CRnEs4Re8,"['C', 'Rn', 'Es', 'Re']","['C - Non-Metal', 'Rn - Non-Metal', 'Es - Metal', 'Re - Metal']","[2.55, 2.2, 1.3, 1.9]",4,"{'C': 1.0, 'Rn': 1.0, 'Es': 4.0, 'Re': 8.0}",TRUE
PdSe2Ge6,"['Pd', 'Se', 'Ge']","['Pd - Metal', 'Se - Non-Metal', 'Ge - Non-Metal']","[2.2, 2.55, 2.01]",3,"{'Pd': 1.0, 'Se': 2.0, 'Ge': 6.0}",FALSE
PdU2Pb3,"['Pd', 'U', 'Pb']","['Pd - Metal', 'U - Metal', 'Pb - Metal']","[2.2, 1.38, 2.33]",3,"{'Pd': 1.0, 'U': 2.0, 'Pb': 3.0}",TRUE
ON2Sc2,"['O', 'N', 'Sc']","['O - Non-Metal', 'N - Non-Metal', 'Sc - Metal']","[3.44, 3.04, 1.36]",3,"{'O': 1.0, 'N': 2.0, 'Sc': 2.0}",FALSE
GaBrTa2,"['Ga', 'Br', 'Ta']","['Ga - Metal', 'Br - Non-Metal', 'Ta - Metal']","[1.81, 2.96, 1.5]",3,"{'Ga': 1.0, 'Br': 1.0, 'Ta': 2.0}",TRUE
Zr2H3Br5,"['Zr', 'H', 'Br']","['Zr - Metal', 'H - Unknown', 'Br - Non-Metal']","[1.33, 2.2, 2.96]",3,"{'Zr': 2.0, 'H': 3.0, 'Br': 5.0}",FALSE
EuS3,"['Eu', 'S']","['Eu - Metal', 'S - Non-Metal']","[1.2, 2.58]",2,"{'Eu': 1.0, 'S': 3.0}",TRUE
MgNbAt2Si5,"['Mg', 'Nb', 'At', 'Si']","['Mg - Metal', 'Nb - Metal', 'At - Non-Metal', 'Si - Non-Metal']","[1.31, 1.6, 2.2, 1.9]",4,"{'Mg': 1.0, 'Nb': 1.0, 'At': 2.0, 'Si': 5.0}",TRUE
NP4,"['N', 'P']","['N - Non-Metal', 'P - Non-Metal']","[3.04, 2.19]",2,"{'N': 1.0, 'P': 4.0}",FALSE
SeEsPt5,"['Se', 'Es', 'Pt']","['Se - Non-Metal', 'Es - Metal', 'Pt - Metal']","[2.55, 1.3, 2.28]",3,"{'Se': 1.0, 'Es': 1.0, 'Pt': 5.0}",TRUE
IGe7,"['I', 'Ge']","['I - Non-Metal', 'Ge - Non-Metal']","[2.66, 2.01]",2,"{'I': 1.0, 'Ge': 7.0}",FALSE
HgPb2S4Zn4,"['Hg', 'Pb', 'S', 'Zn']","['Hg - Metal', 'Pb - Metal', 'S - Non-Metal', 'Zn - Metal']","[2.0, 2.33, 2.58, 1.65]",4,"{'Hg': 1.0, 'Pb': 2.0, 'S': 4.0, 'Zn': 4.0}",FALSE
CTiPo4,"['C', 'Ti', 'Po']","['C - Non-Metal', 'Ti - Metal', 'Po - Non-Metal']","[2.55, 1.54, 2.0]",3,"{'C': 1.0, 'Ti': 1.0, 'Po': 4.0}",TRUE
Ir2Mn3Bi3,"['Ir', 'Mn', 'Bi']","['Ir - Metal', 'Mn - Metal', 'Bi - Metal']","[2.2, 1.55, 2.02]",3,"{'Ir': 2.0, 'Mn': 3.0, 'Bi': 3.0}",TRUE
MnI5,"['Mn', 'I']","['Mn - Metal', 'I - Non-Metal']","[1.55, 2.66]",2,"{'Mn': 1.0, 'I': 5.0}",FALSE
VGe5,"['V', 'Ge']","['V - Metal', 'Ge - Non-Metal']","[1.63, 2.01]",2,"{'V': 1.0, 'Ge': 5.0}",TRUE
OScNbTeZr4,"['O', 'Sc', 'Nb', 'Te', 'Zr']","['O - Non-Metal', 'Sc - Metal', 'Nb - Metal', 'Te - Non-Metal', 'Zr - Metal']","[3.44, 1.36, 1.6, 2.1, 1.33]",5,"{'O': 1.0, 'Sc': 1.0, 'Nb': 1.0, 'Te': 1.0, 'Zr': 4.0}",TRUE
AgTh3Po5,"['Ag', 'Th', 'Po']","['Ag - Metal', 'Th - Metal', 'Po - Non-Metal']","[1.93, 1.3, 2.0]",3,"{'Ag': 1.0, 'Th': 3.0, 'Po': 5.0}",TRUE
Tm3Pt3As5,"['Tm', 'Pt', 'As']","['Tm - Metal', 'Pt - Metal', 'As - Non-Metal']","[1.25, 2.28, 2.18]",3,"{'Tm': 3.0, 'Pt': 3.0, 'As': 5.0}",TRUE
NBi,"['N', 'Bi']","['N - Non-Metal', 'Bi - Metal']","[3.04, 2.02]",2,"{'N': 1.0, 'Bi': 1.0}",FALSE
SEsBe3Bi3Nb6,"['S', 'Es', 'Be', 'Bi', 'Nb']","['S - Non-Metal', 'Es - Metal', 'Be - Metal', 'Bi - Metal', 'Nb - Metal']","[2.58, 1.3, 1.57, 2.02, 1.6]",5,"{'S': 1.0, 'Es': 1.0, 'Be': 3.0, 'Bi': 3.0, 'Nb': 6.0}",TRUE
Ru2Te7,"['Ru', 'Te']","['Ru - Metal', 'Te - Non-Metal']","[2.2, 2.1]",2,"{'Ru': 2.0, 'Te': 7.0}",FALSE
MoSn,"['Mo', 'Sn']","['Mo - Metal', 'Sn - Metal']","[2.16, 1.96]",2,"{'Mo': 1.0, 'Sn': 1.0}",TRUE
ClAs,"['Cl', 'As']","['Cl - Non-Metal', 'As - Non-Metal']","[3.16, 2.18]",2,"{'Cl': 1.0, 'As': 1.0}",FALSE
YbSb4S5,"['Yb', 'Sb', 'S']","['Yb - Metal', 'Sb - Non-Metal', 'S - Non-Metal']","[1.1, 2.05, 2.58]",3,"{'Yb': 1.0, 'Sb': 4.0, 'S': 5.0}",TRUE
GeTlIn2,"['Ge', 'Tl', 'In']","['Ge - Non-Metal', 'Tl - Metal', 'In - Metal']","[2.01, 1.62, 1.78]",3,"{'Ge': 1.0, 'Tl': 1.0, 'In': 2.0}",TRUE
IrXe3,"['Ir', 'Xe']","['Ir - Metal', 'Xe - Non-Metal']","[2.2, 2.6]",2,"{'Ir': 1.0, 'Xe': 3.0}",FALSE
Ta2N3Ru4,"['Ta', 'N', 'Ru']","['Ta - Metal', 'N - Non-Metal', 'Ru - Metal']","[1.5, 3.04, 2.2]",3,"{'Ta': 2.0, 'N': 3.0, 'Ru': 4.0}",FALSE
MgOs4Br5,"['Mg', 'Os', 'Br']","['Mg - Metal', 'Os - Metal', 'Br - Non-Metal']","[1.31, 2.2, 2.96]",3,"{'Mg': 1.0, 'Os': 4.0, 'Br': 5.0}",FALSE
RhSe2,"['Rh', 'Se']","['Rh - Metal', 'Se - Non-Metal']","[2.28, 2.55]",2,"{'Rh': 1.0, 'Se': 2.0}",FALSE
FeGdAtCo2Mg4,"['Fe', 'Gd', 'At', 'Co', 'Mg']","['Fe - Metal', 'Gd - Metal', 'At - Non-Metal', 'Co - Metal', 'Mg - Metal']","[1.83, 1.2, 2.2, 1.88, 1.31]",5,"{'Fe': 1.0, 'Gd': 1.0, 'At': 1.0, 'Co': 2.0, 'Mg': 4.0}",TRUE
PdAgSnRu2O4,"['Pd', 'Ag', 'Sn', 'Ru', 'O']","['Pd - Metal', 'Ag - Metal', 'Sn - Metal', 'Ru - Metal', 'O - Non-Metal']","[2.2, 1.93, 1.96, 2.2, 3.44]",5,"{'Pd': 1.0, 'Ag': 1.0, 'Sn': 1.0, 'Ru': 2.0, 'O': 4.0}",FALSE
Ge2Se4Ho5,"['Ge', 'Se', 'Ho']","['Ge - Non-Metal', 'Se - Non-Metal', 'Ho - Metal']","[2.01, 2.55, 1.23]",3,"{'Ge': 2.0, 'Se': 4.0, 'Ho': 5.0}",TRUE
TeN2Cr4,"['Te', 'N', 'Cr']","['Te - Non-Metal', 'N - Non-Metal', 'Cr - Metal']","[2.1, 3.04, 1.66]",3,"{'Te': 1.0, 'N': 2.0, 'Cr': 4.0}",FALSE
EsKr3Ru5,"['Es', 'Kr', 'Ru']","['Es - Metal', 'Kr - Non-Metal', 'Ru - Metal']","[1.3, 3.0, 2.2]",3,"{'Es': 1.0, 'Kr': 3.0, 'Ru': 5.0}",FALSE
C2O2Ru3Mg5,"['C', 'O', 'Ru', 'Mg']","['C - Non-Metal', 'O - Non-Metal', 'Ru - Metal', 'Mg - Metal']","[2.55, 3.44, 2.2, 1.31]",4,"{'C': 2.0, 'O': 2.0, 'Ru': 3.0, 'Mg': 5.0}",FALSE
Al2S3Fe7,"['Al', 'S', 'Fe']","['Al - Metal', 'S - Non-Metal', 'Fe - Metal']","[1.61, 2.58, 1.83]",3,"{'Al': 2.0, 'S': 3.0, 'Fe': 7.0}",TRUE
BkC2,"['Bk', 'C']","['Bk - Metal', 'C - Non-Metal']","[1.3, 2.55]",2,"{'Bk': 1.0, 'C': 2.0}",TRUE
HBiP6,"['H', 'Bi', 'P']","['H - Unknown', 'Bi - Metal', 'P - Non-Metal']","[2.2, 2.02, 2.19]",3,"{'H': 1.0, 'Bi': 1.0, 'P': 6.0}",FALSE
NdBr3,"['Nd', 'Br']","['Nd - Metal', 'Br - Non-Metal']","[1.14, 2.96]",2,"{'Nd': 1.0, 'Br': 3.0}",TRUE
NYbRu3Te5,"['N', 'Yb', 'Ru', 'Te']","['N - Non-Metal', 'Yb - Metal', 'Ru - Metal', 'Te - Non-Metal']","[3.04, 1.1, 2.2, 2.1]",4,"{'N': 1.0, 'Yb': 1.0, 'Ru': 3.0, 'Te': 5.0}",FALSE
SbAt,"['Sb', 'At']","['Sb - Non-Metal', 'At - Non-Metal']","[2.05, 2.2]",2,"{'Sb': 1.0, 'At': 1.0}",FALSE
NaLaBkI3,"['Na', 'La', 'Bk', 'I']","['Na - Metal', 'La - Metal', 'Bk - Metal', 'I - Non-Metal']","[0.93, 1.1, 1.3, 2.66]",4,"{'Na': 1.0, 'La': 1.0, 'Bk': 1.0, 'I': 3.0}",TRUE
ErCl3,"['Er', 'Cl']","['Er - Metal', 'Cl - Non-Metal']","[1.24, 3.16]",2,"{'Er': 1.0, 'Cl': 3.0}",FALSE
Si2F3Pt5,"['Si', 'F', 'Pt']","['Si - Non-Metal', 'F - Non-Metal', 'Pt - Metal']","[1.9, 3.98, 2.28]",3,"{'Si': 2.0, 'F': 3.0, 'Pt': 5.0}",FALSE
NiPt3P5,"['Ni', 'Pt', 'P']","['Ni - Metal', 'Pt - Metal', 'P - Non-Metal']","[1.91, 2.28, 2.19]",3,"{'Ni': 1.0, 'Pt': 3.0, 'P': 5.0}",FALSE
STi3,"['S', 'Ti']","['S - Non-Metal', 'Ti - Metal']","[2.58, 1.54]",2,"{'S': 1.0, 'Ti': 3.0}",TRUE
STa2,"['S', 'Ta']","['S - Non-Metal', 'Ta - Metal']","[2.58, 1.5]",2,"{'S': 1.0, 'Ta': 2.0}",TRUE
CfS2Co2,"['Cf', 'S', 'Co']","['Cf - Metal', 'S - Non-Metal', 'Co - Metal']","[1.3, 2.58, 1.88]",3,"{'Cf': 1.0, 'S': 2.0, 'Co': 2.0}",TRUE
ClMn3Y5,"['Cl', 'Mn', 'Y']","['Cl - Non-Metal', 'Mn - Metal', 'Y - Metal']","[3.16, 1.55, 1.22]",3,"{'Cl': 1.0, 'Mn': 3.0, 'Y': 5.0}",TRUE
F2Zn2Ge3Dy5,"['F', 'Zn', 'Ge', 'Dy']","['F - Non-Metal', 'Zn - Metal', 'Ge - Non-Metal', 'Dy - Metal']","[3.98, 1.65, 2.01, 1.22]",4,"{'F': 2.0, 'Zn': 2.0, 'Ge': 3.0, 'Dy': 5.0}",FALSE
MoKr3As4,"['Mo', 'Kr', 'As']","['Mo - Metal', 'Kr - Non-Metal', 'As - Non-Metal']","[2.16, 3.0, 2.18]",3,"{'Mo': 1.0, 'Kr': 3.0, 'As': 4.0}",FALSE
AtP2Md2Sn3Tc5,"['At', 'P', 'Md', 'Sn', 'Tc']","['At - Non-Metal', 'P - Non-Metal', 'Md - Metal', 'Sn - Metal', 'Tc - Metal']","[2.2, 2.19, 1.3, 1.96, 1.9]",5,"{'At': 1.0, 'P': 2.0, 'Md': 2.0, 'Sn': 3.0, 'Tc': 5.0}",TRUE
Re2Se3,"['Re', 'Se']","['Re - Metal', 'Se - Non-Metal']","[1.9, 2.55]",2,"{'Re': 2.0, 'Se': 3.0}",FALSE
Mo2Ge3Bi4,"['Mo', 'Ge', 'Bi']","['Mo - Metal', 'Ge - Non-Metal', 'Bi - Metal']","[2.16, 2.01, 2.02]",3,"{'Mo': 2.0, 'Ge': 3.0, 'Bi': 4.0}",TRUE
GaH2Si3,"['Ga', 'H', 'Si']","['Ga - Metal', 'H - Unknown', 'Si - Non-Metal']","[1.81, 2.2, 1.9]",3,"{'Ga': 1.0, 'H': 2.0, 'Si': 3.0}",TRUE
GeO2Al2,"['Ge', 'O', 'Al']","['Ge - Non-Metal', 'O - Non-Metal', 'Al - Metal']","[2.01, 3.44, 1.61]",3,"{'Ge': 1.0, 'O': 2.0, 'Al': 2.0}",FALSE
CrSi2,"['Cr', 'Si']","['Cr - Metal', 'Si - Non-Metal']","[1.66, 1.9]",2,"{'Cr': 1.0, 'Si': 2.0}",TRUE
CuC2Se5,"['Cu', 'C', 'Se']","['Cu - Metal', 'C - Non-Metal', 'Se - Non-Metal']","[1.9, 2.55, 2.55]",3,"{'Cu': 1.0, 'C': 2.0, 'Se': 5.0}",FALSE
OFePt2Te7,"['O', 'Fe', 'Pt', 'Te']","['O - Non-Metal', 'Fe - Metal', 'Pt - Metal', 'Te - Non-Metal']","[3.44, 1.83, 2.28, 2.1]",4,"{'O': 1.0, 'Fe': 1.0, 'Pt': 2.0, 'Te': 7.0}",FALSE
BrRh4,"['Br', 'Rh']","['Br - Non-Metal', 'Rh - Metal']","[2.96, 2.28]",2,"{'Br': 1.0, 'Rh': 4.0}",FALSE
ClPd3Mn5,"['Cl', 'Pd', 'Mn']","['Cl - Non-Metal', 'Pd - Metal', 'Mn - Metal']","[3.16, 2.2, 1.55]",3,"{'Cl': 1.0, 'Pd': 3.0, 'Mn': 5.0}",FALSE
BeBIP4,"['Be', 'B', 'I', 'P']","['Be - Metal', 'B - Non-Metal', 'I - Non-Metal', 'P - Non-Metal']","[1.57, 2.04, 2.66, 2.19]",4,"{'Be': 1.0, 'B': 1.0, 'I': 1.0, 'P': 4.0}",FALSE
GeS3Fe3,"['Ge', 'S', 'Fe']","['Ge - Non-Metal', 'S - Non-Metal', 'Fe - Metal']","[2.01, 2.58, 1.83]",3,"{'Ge': 1.0, 'S': 3.0, 'Fe': 3.0}",FALSE
Hg2O3V3Ta5,"['Hg', 'O', 'V', 'Ta']","['Hg - Metal', 'O - Non-Metal', 'V - Metal', 'Ta - Metal']","[2.0, 3.44, 1.63, 1.5]",4,"{'Hg': 2.0, 'O': 3.0, 'V': 3.0, 'Ta': 5.0}",FALSE
CfPo2,"['Cf', 'Po']","['Cf - Metal', 'Po - Non-Metal']","[1.3, 2.0]",2,"{'Cf': 1.0, 'Po': 2.0}",TRUE
FV2S3Ni4Yb5,"['F', 'V', 'S', 'Ni', 'Yb']","['F - Non-Metal', 'V - Metal', 'S - Non-Metal', 'Ni - Metal', 'Yb - Metal']","[3.98, 1.63, 2.58, 1.91, 1.1]",5,"{'F': 1.0, 'V': 2.0, 'S': 3.0, 'Ni': 4.0, 'Yb': 5.0}",FALSE
Pr2Se3,"['Pr', 'Se']","['Pr - Metal', 'Se - Non-Metal']","[1.13, 2.55]",2,"{'Pr': 2.0, 'Se': 3.0}",TRUE
PrV2Xe2Rn2Mn3,"['Pr', 'V', 'Xe', 'Rn', 'Mn']","['Pr - Metal', 'V - Metal', 'Xe - Non-Metal', 'Rn - Non-Metal', 'Mn - Metal']","[1.13, 1.63, 2.6, 2.2, 1.55]",5,"{'Pr': 1.0, 'V': 2.0, 'Xe': 2.0, 'Rn': 2.0, 'Mn': 3.0}",TRUE
RnBr3Pt3,"['Rn', 'Br', 'Pt']","['Rn - Non-Metal', 'Br - Non-Metal', 'Pt - Metal']","[2.2, 2.96, 2.28]",3,"{'Rn': 1.0, 'Br': 3.0, 'Pt': 3.0}",FALSE
TeCr4,"['Te', 'Cr']","['Te - Non-Metal', 'Cr - Metal']","[2.1, 1.66]",2,"{'Te': 1.0, 'Cr': 4.0}",TRUE
PRe,"['P', 'Re']","['P - Non-Metal', 'Re - Metal']","[2.19, 1.9]",2,"{'P': 1.0, 'Re': 1.0}",TRUE
NpCl3,"['Np', 'Cl']","['Np - Metal', 'Cl - Non-Metal']","[1.36, 3.16]",2,"{'Np': 1.0, 'Cl': 3.0}",FALSE
NS3Ni4,"['N', 'S', 'Ni']","['N - Non-Metal', 'S - Non-Metal', 'Ni - Metal']","[3.04, 2.58, 1.91]",3,"{'N': 1.0, 'S': 3.0, 'Ni': 4.0}",FALSE
ClSc,"['Cl', 'Sc']","['Cl - Non-Metal', 'Sc - Metal']","[3.16, 1.36]",2,"{'Cl': 1.0, 'Sc': 1.0}",FALSE
Ag3Po3Ir5,"['Ag', 'Po', 'Ir']","['Ag - Metal', 'Po - Non-Metal', 'Ir - Metal']","[1.93, 2.0, 2.2]",3,"{'Ag': 3.0, 'Po': 3.0, 'Ir': 5.0}",TRUE
CoPa2Bi3,"['Co', 'Pa', 'Bi']","['Co - Metal', 'Pa - Metal', 'Bi - Metal']","[1.88, 1.5, 2.02]",3,"{'Co': 1.0, 'Pa': 2.0, 'Bi': 3.0}",TRUE
BH2Po2Cr3Pu4,"['B', 'H', 'Po', 'Cr', 'Pu']","['B - Non-Metal', 'H - Unknown', 'Po - Non-Metal', 'Cr - Metal', 'Pu - Metal']","[2.04, 2.2, 2.0, 1.66, 1.28]",5,"{'B': 1.0, 'H': 2.0, 'Po': 2.0, 'Cr': 3.0, 'Pu': 4.0}",TRUE
SeIn2,"['Se', 'In']","['Se - Non-Metal', 'In - Metal']","[2.55, 1.78]",2,"{'Se': 1.0, 'In': 2.0}",FALSE
Zr2Mo2O7,"['Zr', 'Mo', 'O']","['Zr - Metal', 'Mo - Metal', 'O - Non-Metal']","[1.33, 2.16, 3.44]",3,"{'Zr': 2.0, 'Mo': 2.0, 'O': 7.0}",FALSE
HgRh3Po4,"['Hg', 'Rh', 'Po']","['Hg - Metal', 'Rh - Metal', 'Po - Non-Metal']","[2.0, 2.28, 2.0]",3,"{'Hg': 1.0, 'Rh': 3.0, 'Po': 4.0}",TRUE
AmO5,"['Am', 'O']","['Am - Metal', 'O - Non-Metal']","[1.3, 3.44]",2,"{'Am': 1.0, 'O': 5.0}",FALSE
AlCl3Mn3,"['Al', 'Cl', 'Mn']","['Al - Metal', 'Cl - Non-Metal', 'Mn - Metal']","[1.61, 3.16, 1.55]",3,"{'Al': 1.0, 'Cl': 3.0, 'Mn': 3.0}",FALSE
FRe5Mn6,"['F', 'Re', 'Mn']","['F - Non-Metal', 'Re - Metal', 'Mn - Metal']","[3.98, 1.9, 1.55]",3,"{'F': 1.0, 'Re': 5.0, 'Mn': 6.0}",FALSE
CrXeN2,"['Cr', 'Xe', 'N']","['Cr - Metal', 'Xe - Non-Metal', 'N - Non-Metal']","[1.66, 2.6, 3.04]",3,"{'Cr': 1.0, 'Xe': 1.0, 'N': 2.0}",FALSE
SNi4,"['S', 'Ni']","['S - Non-Metal', 'Ni - Metal']","[2.58, 1.91]",2,"{'S': 1.0, 'Ni': 4.0}",FALSE
SeF4,"['Se', 'F']","['Se - Non-Metal', 'F - Non-Metal']","[2.55, 3.98]",2,"{'Se': 1.0, 'F': 4.0}",FALSE
PtFe3Po4Er5,"['Pt', 'Fe', 'Po', 'Er']","['Pt - Metal', 'Fe - Metal', 'Po - Non-Metal', 'Er - Metal']","[2.28, 1.83, 2.0, 1.24]",4,"{'Pt': 1.0, 'Fe': 3.0, 'Po': 4.0, 'Er': 5.0}",TRUE
PtN4,"['Pt', 'N']","['Pt - Metal', 'N - Non-Metal']","[2.28, 3.04]",2,"{'Pt': 1.0, 'N': 4.0}",FALSE
PCl2Ru4Tc6,"['P', 'Cl', 'Ru', 'Tc']","['P - Non-Metal', 'Cl - Non-Metal', 'Ru - Metal', 'Tc - Metal']","[2.19, 3.16, 2.2, 1.9]",4,"{'P': 1.0, 'Cl': 2.0, 'Ru': 4.0, 'Tc': 6.0}",FALSE
C2Fe2Se3,"['C', 'Fe', 'Se']","['C - Non-Metal', 'Fe - Metal', 'Se - Non-Metal']","[2.55, 1.83, 2.55]",3,"{'C': 2.0, 'Fe': 2.0, 'Se': 3.0}",FALSE
TbF2Pd2Ta2,"['Tb', 'F', 'Pd', 'Ta']","['Tb - Metal', 'F - Non-Metal', 'Pd - Metal', 'Ta - Metal']","[1.1, 3.98, 2.2, 1.5]",4,"{'Tb': 1.0, 'F': 2.0, 'Pd': 2.0, 'Ta': 2.0}",FALSE
B2Se3,"['B', 'Se']","['B - Non-Metal', 'Se - Non-Metal']","[2.04, 2.55]",2,"{'B': 2.0, 'Se': 3.0}",FALSE
RnPt6,"['Rn', 'Pt']","['Rn - Non-Metal', 'Pt - Metal']","[2.2, 2.28]",2,"{'Rn': 1.0, 'Pt': 6.0}",FALSE
S2Sc2Fe2Rh3,"['S', 'Sc', 'Fe', 'Rh']","['S - Non-Metal', 'Sc - Metal', 'Fe - Metal', 'Rh - Metal']","[2.58, 1.36, 1.83, 2.28]",4,"{'S': 2.0, 'Sc': 2.0, 'Fe': 2.0, 'Rh': 3.0}",TRUE