formula,Elements,Metal_NonMetal,Electronegativity,Num_Elements,Atomic_Composition,Is_Metal
GdAt,"['Gd', 'At']","['Gd - Metal', 'At - Non-Metal']","[1.2, 2.2]",2,"{'Gd': 1.0, 'At': 1.0}",TRUE
TaGe5,"['Ta', 'Ge']","['Ta - Metal', 'Ge - Non-Metal']","[1.5, 2.01]",2,"{'Ta': 1.0, 'Ge': 5.0}",TRUE
Ir2O5,"['Ir', 'O']","['Ir - Metal', 'O - Non-Metal']","[2.2, 3.44]",2,"{'Ir': 2.0, 'O': 5.0}",FALSE
KrTc2W2Mo6,"['Kr', 'Tc', 'W', 'Mo']","['Kr - Non-Metal', 'Tc - Metal', 'W - Metal', 'Mo - Metal']","[3.0, 1.9, 2.36, 2.16]",4,"{'Kr': 1.0, 'Tc': 2.0, 'W': 2.0, 'Mo': 6.0}",FALSE
OWTl5,"['O', 'W', 'Tl']","['O - Non-Metal', 'W - Metal', 'Tl - Metal']","[3.44, 2.36, 1.62]",3,"{'O': 1.0, 'W': 1.0, 'Tl': 5.0}",FALSE
KFeRn,"['K', 'Fe', 'Rn']","['K - Metal', 'Fe - Metal', 'Rn - Non-Metal']","[0.82, 1.83, 2.2]",3,"{'K': 1.0, 'Fe': 1.0, 'Rn': 1.0}",TRUE
OTbNi5,"['O', 'Tb', 'Ni']","['O - Non-Metal', 'Tb - Metal', 'Ni - Metal']","[3.44, 1.1, 1.91]",3,"{'O': 1.0, 'Tb': 1.0, 'Ni': 5.0}",FALSE
YPbBi3,"['Y', 'Pb', 'Bi']","['Y - Metal', 'Pb - Metal', 'Bi - Metal']","[1.22, 2.33, 2.02]",3,"{'Y': 1.0, 'Pb': 1.0, 'Bi': 3.0}",TRUE
AtZr2B3V6,"['At', 'Zr', 'B', 'V']","['At - Non-Metal', 'Zr - Metal', 'B - Non-Metal', 'V - Metal']","[2.2, 1.33, 2.04, 1.63]",4,"{'At': 1.0, 'Zr': 2.0, 'B': 3.0, 'V': 6.0}",TRUE
UAt3,"['U', 'At']","['U - Metal', 'At - Non-Metal']","[1.38, 2.2]",2,"{'U': 1.0, 'At': 3.0}",TRUE
O2La3Se5,"['O', 'La', 'Se']","['O - Non-Metal', 'La - Metal', 'Se - Non-Metal']","[3.44, 1.1, 2.55]",3,"{'O': 2.0, 'La': 3.0, 'Se': 5.0}",FALSE
Cl2Os2Cr5,"['Cl', 'Os', 'Cr']","['Cl - Non-Metal', 'Os - Metal', 'Cr - Metal']","[3.16, 2.2, 1.66]",3,"{'Cl': 2.0, 'Os': 2.0, 'Cr': 5.0}",FALSE
CmCl3,"['Cm', 'Cl']","['Cm - Metal', 'Cl - Non-Metal']","[1.3, 3.16]",2,"{'Cm': 1.0, 'Cl': 3.0}",FALSE
EsS4,"['Es', 'S']","['Es - Metal', 'S - Non-Metal']","[1.3, 2.58]",2,"{'Es': 1.0, 'S': 4.0}",TRUE
VPo5B6,"['V', 'Po', 'B']","['V - Metal', 'Po - Non-Metal', 'B - Non-Metal']","[1.63, 2.0, 2.04]",3,"{'V': 1.0, 'Po': 5.0, 'B': 6.0}",TRUE
ClCuIr8,"['Cl', 'Cu', 'Ir']","['Cl - Non-Metal', 'Cu - Metal', 'Ir - Metal']","[3.16, 1.9, 2.2]",3,"{'Cl': 1.0, 'Cu': 1.0, 'Ir': 8.0}",FALSE
RnN3,"['Rn', 'N']","['Rn - Non-Metal', 'N - Non-Metal']","[2.2, 3.04]",2,"{'Rn': 1.0, 'N': 3.0}",FALSE
CIYb3V7,"['C', 'I', 'Yb', 'V']","['C - Non-Metal', 'I - Non-Metal', 'Yb - Metal', 'V - Metal']","[2.55, 2.66, 1.1, 1.63]",4,"{'C': 1.0, 'I': 1.0, 'Yb': 3.0, 'V': 7.0}",TRUE
ORh3Si4,"['O', 'Rh', 'Si']","['O - Non-Metal', 'Rh - Metal', 'Si - Non-Metal']","[3.44, 2.28, 1.9]",3,"{'O': 1.0, 'Rh': 3.0, 'Si': 4.0}",FALSE
CoN4,"['Co', 'N']","['Co - Metal', 'N - Non-Metal']","[1.88, 3.04]",2,"{'Co': 1.0, 'N': 4.0}",FALSE
COs,"['C', 'Os']","['C - Non-Metal', 'Os - Metal']","[2.55, 2.2]",2,"{'C': 1.0, 'Os': 1.0}",FALSE
SeOsMn2Cm2B4,"['Se', 'Os', 'Mn', 'Cm', 'B']","['Se - Non-Metal', 'Os - Metal', 'Mn - Metal', 'Cm - Metal', 'B - Non-Metal']","[2.55, 2.2, 1.55, 1.3, 2.04]",5,"{'Se': 1.0, 'Os': 1.0, 'Mn': 2.0, 'Cm': 2.0, 'B': 4.0}",TRUE
U2O3,"['U', 'O']","['U - Metal', 'O - Non-Metal']","[1.38, 3.44]",2,"{'U': 2.0, 'O': 3.0}",FALSE
As2Ir3P4,"['As', 'Ir', 'P']","['As - Non-Metal', 'Ir - Metal', 'P - Non-Metal']","[2.18, 2.2, 2.19]",3,"{'As': 2.0, 'Ir': 3.0, 'P': 4.0}",FALSE
ICl3Ru4Ti5,"['I', 'Cl', 'Ru', 'Ti']","['I - Non-Metal', 'Cl - Non-Metal', 'Ru - Metal', 'Ti - Metal']","[2.66, 3.16, 2.2, 1.54]",4,"{'I': 1.0, 'Cl': 3.0, 'Ru': 4.0, 'Ti': 5.0}",FALSE
RbI,"['Rb', 'I']","['Rb - Metal', 'I - Non-Metal']","[0.82, 2.66]",2,"{'Rb': 1.0, 'I': 1.0}",TRUE
KrEr2Te4,"['Kr', 'Er', 'Te']","['Kr - Non-Metal', 'Er - Metal', 'Te - Non-Metal']","[3.0, 1.24, 2.1]",3,"{'Kr': 1.0, 'Er': 2.0, 'Te': 4.0}",FALSE
P2Re2Ni3,"['P', 'Re', 'Ni']","['P - Non-Metal', 'Re - Metal', 'Ni - Metal']","[2.19, 1.9, 1.91]",3,"{'P': 2.0, 'Re': 2.0, 'Ni': 3.0}",TRUE
InC3At3,"['In', 'C', 'At']","['In - Metal', 'C - Non-Metal', 'At - Non-Metal']","[1.78, 2.55, 2.2]",3,"{'In': 1.0, 'C': 3.0, 'At': 3.0}",FALSE
SClSb4,"['S', 'Cl', 'Sb']","['S - Non-Metal', 'Cl - Non-Metal', 'Sb - Non-Metal']","[2.58, 3.16, 2.05]",3,"{'S': 1.0, 'Cl': 1.0, 'Sb': 4.0}",FALSE
Mn2I3P5,"['Mn', 'I', 'P']","['Mn - Metal', 'I - Non-Metal', 'P - Non-Metal']","[1.55, 2.66, 2.19]",3,"{'Mn': 2.0, 'I': 3.0, 'P': 5.0}",FALSE
ClCo2,"['Cl', 'Co']","['Cl - Non-Metal', 'Co - Metal']","[3.16, 1.88]",2,"{'Cl': 1.0, 'Co': 2.0}",FALSE
BrAs3In6,"['Br', 'As', 'In']","['Br - Non-Metal', 'As - Non-Metal', 'In - Metal']","[2.96, 2.18, 1.78]",3,"{'Br': 1.0, 'As': 3.0, 'In': 6.0}",FALSE
F2Mo4Co5,"['F', 'Mo', 'Co']","['F - Non-Metal', 'Mo - Metal', 'Co - Metal']","[3.98, 2.16, 1.88]",3,"{'F': 2.0, 'Mo': 4.0, 'Co': 5.0}",FALSE
CoNiSn,"['Co', 'Ni', 'Sn']","['Co - Metal', 'Ni - Metal', 'Sn - Metal']","[1.88, 1.91, 1.96]",3,"{'Co': 1.0, 'Ni': 1.0, 'Sn': 1.0}",TRUE
BrMg2Ir3Re8,"['Br', 'Mg', 'Ir', 'Re']","['Br - Non-Metal', 'Mg - Metal', 'Ir - Metal', 'Re - Metal']","[2.96, 1.31, 2.2, 1.9]",4,"{'Br': 1.0, 'Mg': 2.0, 'Ir': 3.0, 'Re': 8.0}",TRUE
EsAt3,"['Es', 'At']","['Es - Metal', 'At - Non-Metal']","[1.3, 2.2]",2,"{'Es': 1.0, 'At': 3.0}",TRUE
PCoOs2As6,"['P', 'Co', 'Os', 'As']","['P - Non-Metal', 'Co - Metal', 'Os - Metal', 'As - Non-Metal']","[2.19, 1.88, 2.2, 2.18]",4,"{'P': 1.0, 'Co': 1.0, 'Os': 2.0, 'As': 6.0}",FALSE
XeTlCmFe3,"['Xe', 'Tl', 'Cm', 'Fe']","['Xe - Non-Metal', 'Tl - Metal', 'Cm - Metal', 'Fe - Metal']","[2.6, 1.62, 1.3, 1.83]",4,"{'Xe': 1.0, 'Tl': 1.0, 'Cm': 1.0, 'Fe': 3.0}",TRUE
Ru2F5Mo5,"['Ru', 'F', 'Mo']","['Ru - Metal', 'F - Non-Metal', 'Mo - Metal']","[2.2, 3.98, 2.16]",3,"{'Ru': 2.0, 'F': 5.0, 'Mo': 5.0}",FALSE
KSeGe2,"['K', 'Se', 'Ge']","['K - Metal', 'Se - Non-Metal', 'Ge - Non-Metal']","[0.82, 2.55, 2.01]",3,"{'K': 1.0, 'Se': 1.0, 'Ge': 2.0}",TRUE
H2Zr3V4Cl5,"['H', 'Zr', 'V', 'Cl']","['H - Unknown', 'Zr - Metal', 'V - Metal', 'Cl - Non-Metal']","[2.2, 1.33, 1.63, 3.16]",4,"{'H': 2.0, 'Zr': 3.0, 'V': 4.0, 'Cl': 5.0}",TRUE
RuAl5Po5,"['Ru', 'Al', 'Po']","['Ru - Metal', 'Al - Metal', 'Po - Non-Metal']","[2.2, 1.61, 2.0]",3,"{'Ru': 1.0, 'Al': 5.0, 'Po': 5.0}",TRUE
Rn2Si3Tl5,"['Rn', 'Si', 'Tl']","['Rn - Non-Metal', 'Si - Non-Metal', 'Tl - Metal']","[2.2, 1.9, 1.62]",3,"{'Rn': 2.0, 'Si': 3.0, 'Tl': 5.0}",TRUE
BMgTe3Mn7,"['B', 'Mg', 'Te', 'Mn']","['B - Non-Metal', 'Mg - Metal', 'Te - Non-Metal', 'Mn - Metal']","[2.04, 1.31, 2.1, 1.55]",4,"{'B': 1.0, 'Mg': 1.0, 'Te': 3.0, 'Mn': 7.0}",TRUE
SrPt2At3,"['Sr', 'Pt', 'At']","['Sr - Metal', 'Pt - Metal', 'At - Non-Metal']","[0.95, 2.28, 2.2]",3,"{'Sr': 1.0, 'Pt': 2.0, 'At': 3.0}",TRUE
Po2U2Mn3,"['Po', 'U', 'Mn']","['Po - Non-Metal', 'U - Metal', 'Mn - Metal']","[2.0, 1.38, 1.55]",3,"{'Po': 2.0, 'U': 2.0, 'Mn': 3.0}",TRUE
TaCl3,"['Ta', 'Cl']","['Ta - Metal', 'Cl - Non-Metal']","[1.5, 3.16]",2,"{'Ta': 1.0, 'Cl': 3.0}",FALSE
Ta2Po5,"['Ta', 'Po']","['Ta - Metal', 'Po - Non-Metal']","[1.5, 2.0]",2,"{'Ta': 2.0, 'Po': 5.0}",TRUE
AcS3,"['Ac', 'S']","['Ac - Metal', 'S - Non-Metal']","[1.1, 2.58]",2,"{'Ac': 1.0, 'S': 3.0}",TRUE
ClN2Te2,"['Cl', 'N', 'Te']","['Cl - Non-Metal', 'N - Non-Metal', 'Te - Non-Metal']","[3.16, 3.04, 2.1]",3,"{'Cl': 1.0, 'N': 2.0, 'Te': 2.0}",FALSE
P2Po3Hg6,"['P', 'Po', 'Hg']","['P - Non-Metal', 'Po - Non-Metal', 'Hg - Metal']","[2.19, 2.0, 2.0]",3,"{'P': 2.0, 'Po': 3.0, 'Hg': 6.0}",TRUE
ClSm3Ni8,"['Cl', 'Sm', 'Ni']","['Cl - Non-Metal', 'Sm - Metal', 'Ni - Metal']","[3.16, 1.17, 1.91]",3,"{'Cl': 1.0, 'Sm': 3.0, 'Ni': 8.0}",TRUE
SePm,"['Se', 'Pm']","['Se - Non-Metal', 'Pm - Metal']","[2.55, 1.13]",2,"{'Se': 1.0, 'Pm': 1.0}",TRUE
PuNb2O4,"['Pu', 'Nb', 'O']","['Pu - Metal', 'Nb - Metal', 'O - Non-Metal']","[1.28, 1.6, 3.44]",3,"{'Pu': 1.0, 'Nb': 2.0, 'O': 4.0}",FALSE
RnBr2Te3,"['Rn', 'Br', 'Te']","['Rn - Non-Metal', 'Br - Non-Metal', 'Te - Non-Metal']","[2.2, 2.96, 2.1]",3,"{'Rn': 1.0, 'Br': 2.0, 'Te': 3.0}",FALSE
InSb2Ta2,"['In', 'Sb', 'Ta']","['In - Metal', 'Sb - Non-Metal', 'Ta - Metal']","[1.78, 2.05, 1.5]",3,"{'In': 1.0, 'Sb': 2.0, 'Ta': 2.0}",TRUE
OAl2Ti4,"['O', 'Al', 'Ti']","['O - Non-Metal', 'Al - Metal', 'Ti - Metal']","[3.44, 1.61, 1.54]",3,"{'O': 1.0, 'Al': 2.0, 'Ti': 4.0}",FALSE
SbTeMg4Os5,"['Sb', 'Te', 'Mg', 'Os']","['Sb - Non-Metal', 'Te - Non-Metal', 'Mg - Metal', 'Os - Metal']","[2.05, 2.1, 1.31, 2.2]",4,"{'Sb': 1.0, 'Te': 1.0, 'Mg': 4.0, 'Os': 5.0}",TRUE
SReMg3,"['S', 'Re', 'Mg']","['S - Non-Metal', 'Re - Metal', 'Mg - Metal']","[2.58, 1.9, 1.31]",3,"{'S': 1.0, 'Re': 1.0, 'Mg': 3.0}",TRUE
Re3Ge4,"['Re', 'Ge']","['Re - Metal', 'Ge - Non-Metal']","[1.9, 2.01]",2,"{'Re': 3.0, 'Ge': 4.0}",TRUE
Ho2O3,"['Ho', 'O']","['Ho - Metal', 'O - Non-Metal']","[1.23, 3.44]",2,"{'Ho': 2.0, 'O': 3.0}",FALSE
Ru2Tm4S5,"['Ru', 'Tm', 'S']","['Ru - Metal', 'Tm - Metal', 'S - Non-Metal']","[2.2, 1.25, 2.58]",3,"{'Ru': 2.0, 'Tm': 4.0, 'S': 5.0}",TRUE
XeSe2C4,"['Xe', 'Se', 'C']","['Xe - Non-Metal', 'Se - Non-Metal', 'C - Non-Metal']","[2.6, 2.55, 2.55]",3,"{'Xe': 1.0, 'Se': 2.0, 'C': 4.0}",FALSE
FeAtTe4,"['Fe', 'At', 'Te']","['Fe - Metal', 'At - Non-Metal', 'Te - Non-Metal']","[1.83, 2.2, 2.1]",3,"{'Fe': 1.0, 'At': 1.0, 'Te': 4.0}",TRUE
BN3,"['B', 'N']","['B - Non-Metal', 'N - Non-Metal']","[2.04, 3.04]",2,"{'B': 1.0, 'N': 3.0}",FALSE
MdSi3S5,"['Md', 'Si', 'S']","['Md - Metal', 'Si - Non-Metal', 'S - Non-Metal']","[1.3, 1.9, 2.58]",3,"{'Md': 1.0, 'Si': 3.0, 'S': 5.0}",TRUE
YbTl3,"['Yb', 'Tl']","['Yb - Metal', 'Tl - Metal']","[1.1, 1.62]",2,"{'Yb': 1.0, 'Tl': 3.0}",TRUE
NiBr3C5,"['Ni', 'Br', 'C']","['Ni - Metal', 'Br - Non-Metal', 'C - Non-Metal']","[1.91, 2.96, 2.55]",3,"{'Ni': 1.0, 'Br': 3.0, 'C': 5.0}",FALSE
NGe2Rh3,"['N', 'Ge', 'Rh']","['N - Non-Metal', 'Ge - Non-Metal', 'Rh - Metal']","[3.04, 2.01, 2.28]",3,"{'N': 1.0, 'Ge': 2.0, 'Rh': 3.0}",FALSE
TmZr4Sb6,"['Tm', 'Zr', 'Sb']","['Tm - Metal', 'Zr - Metal', 'Sb - Non-Metal']","[1.25, 1.33, 2.05]",3,"{'Tm': 1.0, 'Zr': 4.0, 'Sb': 6.0}",TRUE
Ru2Te3Co8,"['Ru', 'Te', 'Co']","['Ru - Metal', 'Te - Non-Metal', 'Co - Metal']","[2.2, 2.1, 1.88]",3,"{'Ru': 2.0, 'Te': 3.0, 'Co': 8.0}",TRUE
ClMd2Co7,"['Cl', 'Md', 'Co']","['Cl - Non-Metal', 'Md - Metal', 'Co - Metal']","[3.16, 1.3, 1.88]",3,"{'Cl': 1.0, 'Md': 2.0, 'Co': 7.0}",FALSE
S2Au4Os5,"['S', 'Au', 'Os']","['S - Non-Metal', 'Au - Metal', 'Os - Metal']","[2.58, 2.54, 2.2]",3,"{'S': 2.0, 'Au': 4.0, 'Os': 5.0}",FALSE
TbPtPo2Au4,"['Tb', 'Pt', 'Po', 'Au']","['Tb - Metal', 'Pt - Metal', 'Po - Non-Metal', 'Au - Metal']","[1.1, 2.28, 2.0, 2.54]",4,"{'Tb': 1.0, 'Pt': 1.0, 'Po': 2.0, 'Au': 4.0}",TRUE
VSn,"['V', 'Sn']","['V - Metal', 'Sn - Metal']","[1.63, 1.96]",2,"{'V': 1.0, 'Sn': 1.0}",TRUE
ScPtNa2Se3,"['Sc', 'Pt', 'Na', 'Se']","['Sc - Metal', 'Pt - Metal', 'Na - Metal', 'Se - Non-Metal']","[1.36, 2.28, 0.93, 2.55]",4,"{'Sc': 1.0, 'Pt': 1.0, 'Na': 2.0, 'Se': 3.0}",TRUE
FAm3Tc5,"['F', 'Am', 'Tc']","['F - Non-Metal', 'Am - Metal', 'Tc - Metal']","[3.98, 1.3, 1.9]",3,"{'F': 1.0, 'Am': 3.0, 'Tc': 5.0}",FALSE
PdRh3S6,"['Pd', 'Rh', 'S']","['Pd - Metal', 'Rh - Metal', 'S - Non-Metal']","[2.2, 2.28, 2.58]",3,"{'Pd': 1.0, 'Rh': 3.0, 'S': 6.0}",FALSE
NRu2,"['N', 'Ru']","['N - Non-Metal', 'Ru - Metal']","[3.04, 2.2]",2,"{'N': 1.0, 'Ru': 2.0}",FALSE
TlCl3,"['Tl', 'Cl']","['Tl - Metal', 'Cl - Non-Metal']","[1.62, 3.16]",2,"{'Tl': 1.0, 'Cl': 3.0}",FALSE
TiReLu3Se6,"['Ti', 'Re', 'Lu', 'Se']","['Ti - Metal', 'Re - Metal', 'Lu - Metal', 'Se - Non-Metal']","[1.54, 1.9, 1.27, 2.55]",4,"{'Ti': 1.0, 'Re': 1.0, 'Lu': 3.0, 'Se': 6.0}",TRUE
SiMdNoI4Tc5,"['Si', 'Md', 'No', 'I', 'Tc']","['Si - Non-Metal', 'Md - Metal', 'No - Metal', 'I - Non-Metal', 'Tc - Metal']","[1.9, 1.3, 1.3, 2.66, 1.9]",5,"{'Si': 1.0, 'Md': 1.0, 'No': 1.0, 'I': 4.0, 'Tc': 5.0}",TRUE
Pb2Mn3Cl4,"['Pb', 'Mn', 'Cl']","['Pb - Metal', 'Mn - Metal', 'Cl - Non-Metal']","[2.33, 1.55, 3.16]",3,"{'Pb': 2.0, 'Mn': 3.0, 'Cl': 4.0}",FALSE
No2Cl3Si4Nb4,"['No', 'Cl', 'Si', 'Nb']","['No - Metal', 'Cl - Non-Metal', 'Si - Non-Metal', 'Nb - Metal']","[1.3, 3.16, 1.9, 1.6]",4,"{'No': 2.0, 'Cl': 3.0, 'Si': 4.0, 'Nb': 4.0}",TRUE
CoTeW3Au5,"['Co', 'Te', 'W', 'Au']","['Co - Metal', 'Te - Non-Metal', 'W - Metal', 'Au - Metal']","[1.88, 2.1, 2.36, 2.54]",4,"{'Co': 1.0, 'Te': 1.0, 'W': 3.0, 'Au': 5.0}",FALSE
C2Mo3Se5,"['C', 'Mo', 'Se']","['C - Non-Metal', 'Mo - Metal', 'Se - Non-Metal']","[2.55, 2.16, 2.55]",3,"{'C': 2.0, 'Mo': 3.0, 'Se': 5.0}",FALSE
KrIEsYb3W7,"['Kr', 'I', 'Es', 'Yb', 'W']","['Kr - Non-Metal', 'I - Non-Metal', 'Es - Metal', 'Yb - Metal', 'W - Metal']","[3.0, 2.66, 1.3, 1.1, 2.36]",5,"{'Kr': 1.0, 'I': 1.0, 'Es': 1.0, 'Yb': 3.0, 'W': 7.0}",TRUE
SSeTmAu7,"['S', 'Se', 'Tm', 'Au']","['S - Non-Metal', 'Se - Non-Metal', 'Tm - Metal', 'Au - Metal']","[2.58, 2.55, 1.25, 2.54]",4,"{'S': 1.0, 'Se': 1.0, 'Tm': 1.0, 'Au': 7.0}",FALSE
KrPa2Cr5,"['Kr', 'Pa', 'Cr']","['Kr - Non-Metal', 'Pa - Metal', 'Cr - Metal']","[3.0, 1.5, 1.66]",3,"{'Kr': 1.0, 'Pa': 2.0, 'Cr': 5.0}",TRUE
IP7,"['I', 'P']","['I - Non-Metal', 'P - Non-Metal']","[2.66, 2.19]",2,"{'I': 1.0, 'P': 7.0}",FALSE
Tl2Es2Cl3Ir4,"['Tl', 'Es', 'Cl', 'Ir']","['Tl - Metal', 'Es - Metal', 'Cl - Non-Metal', 'Ir - Metal']","[1.62, 1.3, 3.16, 2.2]",4,"{'Tl': 2.0, 'Es': 2.0, 'Cl': 3.0, 'Ir': 4.0}",TRUE
CmCl2H4,"['Cm', 'Cl', 'H']","['Cm - Metal', 'Cl - Non-Metal', 'H - Unknown']","[1.3, 3.16, 2.2]",3,"{'Cm': 1.0, 'Cl': 2.0, 'H': 4.0}",FALSE
PuS4,"['Pu', 'S']","['Pu - Metal', 'S - Non-Metal']","[1.28, 2.58]",2,"{'Pu': 1.0, 'S': 4.0}",TRUE
BrGe5,"['Br', 'Ge']","['Br - Non-Metal', 'Ge - Non-Metal']","[2.96, 2.01]",2,"{'Br': 1.0, 'Ge': 5.0}",FALSE
Br2Fe5Ti7,"['Br', 'Fe', 'Ti']","['Br - Non-Metal', 'Fe - Metal', 'Ti - Metal']","[2.96, 1.83, 1.54]",3,"{'Br': 2.0, 'Fe': 5.0, 'Ti': 7.0}",FALSE
Au2Tc3S4,"['Au', 'Tc', 'S']","['Au - Metal', 'Tc - Metal', 'S - Non-Metal']","[2.54, 1.9, 2.58]",3,"{'Au': 2.0, 'Tc': 3.0, 'S': 4.0}",FALSE
N3As4,"['N', 'As']","['N - Non-Metal', 'As - Non-Metal']","[3.04, 2.18]",2,"{'N': 3.0, 'As': 4.0}",FALSE
NdGd3S4,"['Nd', 'Gd', 'S']","['Nd - Metal', 'Gd - Metal', 'S - Non-Metal']","[1.14, 1.2, 2.58]",3,"{'Nd': 1.0, 'Gd': 3.0, 'S': 4.0}",TRUE
TiS2Cr3Co4Po4,"['Ti', 'S', 'Cr', 'Co', 'Po']","['Ti - Metal', 'S - Non-Metal', 'Cr - Metal', 'Co - Metal', 'Po - Non-Metal']","[1.54, 2.58, 1.66, 1.88, 2.0]",5,"{'Ti': 1.0, 'S': 2.0, 'Cr': 3.0, 'Co': 4.0, 'Po': 4.0}",TRUE
PoRu2,"['Po', 'Ru']","['Po - Non-Metal', 'Ru - Metal']","[2.0, 2.2]",2,"{'Po': 1.0, 'Ru': 2.0}",TRUE
CfSb3Se6,"['Cf', 'Sb', 'Se']","['Cf - Metal', 'Sb - Non-Metal', 'Se - Non-Metal']","[1.3, 2.05, 2.55]",3,"{'Cf': 1.0, 'Sb': 3.0, 'Se': 6.0}",TRUE
BrC3Pr5,"['Br', 'C', 'Pr']","['Br - Non-Metal', 'C - Non-Metal', 'Pr - Metal']","[2.96, 2.55, 1.13]",3,"{'Br': 1.0, 'C': 3.0, 'Pr': 5.0}",FALSE
Te3Os3Er4,"['Te', 'Os', 'Er']","['Te - Non-Metal', 'Os - Metal', 'Er - Metal']","[2.1, 2.2, 1.24]",3,"{'Te': 3.0, 'Os': 3.0, 'Er': 4.0}",TRUE
NiRuI2,"['Ni', 'Ru', 'I']","['Ni - Metal', 'Ru - Metal', 'I - Non-Metal']","[1.91, 2.2, 2.66]",3,"{'Ni': 1.0, 'Ru': 1.0, 'I': 2.0}",FALSE
Sn2Au2Po2C3,"['Sn', 'Au', 'Po', 'C']","['Sn - Metal', 'Au - Metal', 'Po - Non-Metal', 'C - Non-Metal']","[1.96, 2.54, 2.0, 2.55]",4,"{'Sn': 2.0, 'Au': 2.0, 'Po': 2.0, 'C': 3.0}",FALSE
SClGaPt2Md2,"['S', 'Cl', 'Ga', 'Pt', 'Md']","['S - Non-Metal', 'Cl - Non-Metal', 'Ga - Metal', 'Pt - Metal', 'Md - Metal']","[2.58, 3.16, 1.81, 2.28, 1.3]",5,"{'S': 1.0, 'Cl': 1.0, 'Ga': 1.0, 'Pt': 2.0, 'Md': 2.0}",FALSE
OC3Rh4,"['O', 'C', 'Rh']","['O - Non-Metal', 'C - Non-Metal', 'Rh - Metal']","[3.44, 2.55, 2.28]",3,"{'O': 1.0, 'C': 3.0, 'Rh': 4.0}",FALSE
PbSe4,"['Pb', 'Se']","['Pb - Metal', 'Se - Non-Metal']","[2.33, 2.55]",2,"{'Pb': 1.0, 'Se': 4.0}",FALSE
BePb2Th2Si3I3,"['Be', 'Pb', 'Th', 'Si', 'I']","['Be - Metal', 'Pb - Metal', 'Th - Metal', 'Si - Non-Metal', 'I - Non-Metal']","[1.57, 2.33, 1.3, 1.9, 2.66]",5,"{'Be': 1.0, 'Pb': 2.0, 'Th': 2.0, 'Si': 3.0, 'I': 3.0}",TRUE
AlBr3Ir3,"['Al', 'Br', 'Ir']","['Al - Metal', 'Br - Non-Metal', 'Ir - Metal']","[1.61, 2.96, 2.2]",3,"{'Al': 1.0, 'Br': 3.0, 'Ir': 3.0}",FALSE
ReCl3,"['Re', 'Cl']","['Re - Metal', 'Cl - Non-Metal']","[1.9, 3.16]",2,"{'Re': 1.0, 'Cl': 3.0}",FALSE
RaF2,"['Ra', 'F']","['Ra - Metal', 'F - Non-Metal']","[0.9, 3.98]",2,"{'Ra': 1.0, 'F': 2.0}",FALSE
U2Se3,"['U', 'Se']","['U - Metal', 'Se - Non-Metal']","[1.38, 2.55]",2,"{'U': 2.0, 'Se': 3.0}",TRUE
HoF2W4Re5,"['Ho', 'F', 'W', 'Re']","['Ho - Metal', 'F - Non-Metal', 'W - Metal', 'Re - Metal']","[1.23, 3.98, 2.36, 1.9]",4,"{'Ho': 1.0, 'F': 2.0, 'W': 4.0, 'Re': 5.0}",FALSE
Mn3At3Re5,"['Mn', 'At', 'Re']","['Mn - Metal', 'At - Non-Metal', 'Re - Metal']","[1.55, 2.2, 1.9]",3,"{'Mn': 3.0, 'At': 3.0, 'Re': 5.0}",TRUE
FeNiWCl2Ag2,"['Fe', 'Ni', 'W', 'Cl', 'Ag']","['Fe - Metal', 'Ni - Metal', 'W - Metal', 'Cl - Non-Metal', 'Ag - Metal']","[1.83, 1.91, 2.36, 3.16, 1.93]",5,"{'Fe': 1.0, 'Ni': 1.0, 'W': 1.0, 'Cl': 2.0, 'Ag': 2.0}",FALSE
KrOsTe2,"['Kr', 'Os', 'Te']","['Kr - Non-Metal', 'Os - Metal', 'Te - Non-Metal']","[3.0, 2.2, 2.1]",3,"{'Kr': 1.0, 'Os': 1.0, 'Te': 2.0}",FALSE
ScCl3,"['Sc', 'Cl']","['Sc - Metal', 'Cl - Non-Metal']","[1.36, 3.16]",2,"{'Sc': 1.0, 'Cl': 3.0}",FALSE
MgGdBe2Re2Br3,"['Mg', 'Gd', 'Be', 'Re', 'Br']","['Mg - Metal', 'Gd - Metal', 'Be - Metal', 'Re - Metal', 'Br - Non-Metal']","[1.31, 1.2, 1.57, 1.9, 2.96]",5,"{'Mg': 1.0, 'Gd': 1.0, 'Be': 2.0, 'Re': 2.0, 'Br': 3.0}",TRUE
ThBr2P7,"['Th', 'Br', 'P']","['Th - Metal', 'Br - Non-Metal', 'P - Non-Metal']","[1.3, 2.96, 2.19]",3,"{'Th': 1.0, 'Br': 2.0, 'P': 7.0}",FALSE
TeAu6,"['Te', 'Au']","['Te - Non-Metal', 'Au - Metal']","[2.1, 2.54]",2,"{'Te': 1.0, 'Au': 6.0}",FALSE
NW3,"['N', 'W']","['N - Non-Metal', 'W - Metal']","[3.04, 2.36]",2,"{'N': 1.0, 'W': 3.0}",FALSE
TePt2,"['Te', 'Pt']","['Te - Non-Metal', 'Pt - Metal']","[2.1, 2.28]",2,"{'Te': 1.0, 'Pt': 2.0}",FALSE
ClInRe3Mo4C5,"['Cl', 'In', 'Re', 'Mo', 'C']","['Cl - Non-Metal', 'In - Metal', 'Re - Metal', 'Mo - Metal', 'C - Non-Metal']","[3.16, 1.78, 1.9, 2.16, 2.55]",5,"{'Cl': 1.0, 'In': 1.0, 'Re': 3.0, 'Mo': 4.0, 'C': 5.0}",FALSE
Fe2Re3At3,"['Fe', 'Re', 'At']","['Fe - Metal', 'Re - Metal', 'At - Non-Metal']","[1.83, 1.9, 2.2]",3,"{'Fe': 2.0, 'Re': 3.0, 'At': 3.0}",TRUE
Os2C3,"['Os', 'C']","['Os - Metal', 'C - Non-Metal']","[2.2, 2.55]",2,"{'Os': 2.0, 'C': 3.0}",FALSE
DyMn2As2P4,"['Dy', 'Mn', 'As', 'P']","['Dy - Metal', 'Mn - Metal', 'As - Non-Metal', 'P - Non-Metal']","[1.22, 1.55, 2.18, 2.19]",4,"{'Dy': 1.0, 'Mn': 2.0, 'As': 2.0, 'P': 4.0}",TRUE
TaRnC2Ge7,"['Ta', 'Rn', 'C', 'Ge']","['Ta - Metal', 'Rn - Non-Metal', 'C - Non-Metal', 'Ge - Non-Metal']","[1.5, 2.2, 2.55, 2.01]",4,"{'Ta': 1.0, 'Rn': 1.0, 'C': 2.0, 'Ge': 7.0}",TRUE
AmP3,"['Am', 'P']","['Am - Metal', 'P - Non-Metal']","[1.3, 2.19]",2,"{'Am': 1.0, 'P': 3.0}",TRUE
SRe3,"['S', 'Re']","['S - Non-Metal', 'Re - Metal']","[2.58, 1.9]",2,"{'S': 1.0, 'Re': 3.0}",FALSE
FLu2Mn5,"['F', 'Lu', 'Mn']","['F - Non-Metal', 'Lu - Metal', 'Mn - Metal']","[3.98, 1.27, 1.55]",3,"{'F': 1.0, 'Lu': 2.0, 'Mn': 5.0}",FALSE
P2Cd2Se3,"['P', 'Cd', 'Se']","['P - Non-Metal', 'Cd - Metal', 'Se - Non-Metal']","[2.19, 1.69, 2.55]",3,"{'P': 2.0, 'Cd': 2.0, 'Se': 3.0}",FALSE
PaTe2,"['Pa', 'Te']","['Pa - Metal', 'Te - Non-Metal']","[1.5, 2.1]",2,"{'Pa': 1.0, 'Te': 2.0}",TRUE
PtSi2,"['Pt', 'Si']","['Pt - Metal', 'Si - Non-Metal']","[2.28, 1.9]",2,"{'Pt': 1.0, 'Si': 2.0}",TRUE
OAs2Ti5,"['O', 'As', 'Ti']","['O - Non-Metal', 'As - Non-Metal', 'Ti - Metal']","[3.44, 2.18, 1.54]",3,"{'O': 1.0, 'As': 2.0, 'Ti': 5.0}",FALSE
SmSe3Ru3,"['Sm', 'Se', 'Ru']","['Sm - Metal', 'Se - Non-Metal', 'Ru - Metal']","[1.17, 2.55, 2.2]",3,"{'Sm': 1.0, 'Se': 3.0, 'Ru': 3.0}",TRUE
WP4,"['W', 'P']","['W - Metal', 'P - Non-Metal']","[2.36, 2.19]",2,"{'W': 1.0, 'P': 4.0}",FALSE
AmAt2Ir6,"['Am', 'At', 'Ir']","['Am - Metal', 'At - Non-Metal', 'Ir - Metal']","[1.3, 2.2, 2.2]",3,"{'Am': 1.0, 'At': 2.0, 'Ir': 6.0}",TRUE
FeK2At4,"['Fe', 'K', 'At']","['Fe - Metal', 'K - Metal', 'At - Non-Metal']","[1.83, 0.82, 2.2]",3,"{'Fe': 1.0, 'K': 2.0, 'At': 4.0}",TRUE
KrB2Tl4,"['Kr', 'B', 'Tl']","['Kr - Non-Metal', 'B - Non-Metal', 'Tl - Metal']","[3.0, 2.04, 1.62]",3,"{'Kr': 1.0, 'B': 2.0, 'Tl': 4.0}",FALSE
AtV7,"['At', 'V']","['At - Non-Metal', 'V - Metal']","[2.2, 1.63]",2,"{'At': 1.0, 'V': 7.0}",TRUE