formula,Elements,Metal_NonMetal,Electronegativity,Num_Elements,Atomic_Composition,Is_Metal
KrPo5Fe6,"['Kr', 'Po', 'Fe']","['Kr - Non-Metal', 'Po - Non-Metal', 'Fe - Metal']","[3.0, 2.0, 1.83]",3,"{'Kr': 1.0, 'Po': 5.0, 'Fe': 6.0}",FALSE
KrBr2Fe6,"['Kr', 'Br', 'Fe']","['Kr - Non-Metal', 'Br - Non-Metal', 'Fe - Metal']","[3.0, 2.96, 1.83]",3,"{'Kr': 1.0, 'Br': 2.0, 'Fe': 6.0}",FALSE
V3Tl3Bi4,"['V', 'Tl', 'Bi']","['V - Metal', 'Tl - Metal', 'Bi - Metal']","[1.63, 1.62, 2.02]",3,"{'V': 3.0, 'Tl': 3.0, 'Bi': 4.0}",TRUE
PoSc4As4Br4,"['Po', 'Sc', 'As', 'Br']","['Po - Non-Metal', 'Sc - Metal', 'As - Non-Metal', 'Br - Non-Metal']","[2.0, 1.36, 2.18, 2.96]",4,"{'Po': 1.0, 'Sc': 4.0, 'As': 4.0, 'Br': 4.0}",FALSE
CrPo3Ta5,"['Cr', 'Po', 'Ta']","['Cr - Metal', 'Po - Non-Metal', 'Ta - Metal']","[1.66, 2.0, 1.5]",3,"{'Cr': 1.0, 'Po': 3.0, 'Ta': 5.0}",TRUE
AlSbNi6,"['Al', 'Sb', 'Ni']","['Al - Metal', 'Sb - Non-Metal', 'Ni - Metal']","[1.61, 2.05, 1.91]",3,"{'Al': 1.0, 'Sb': 1.0, 'Ni': 6.0}",TRUE
Br2Mn3N4Mo4,"['Br', 'Mn', 'N', 'Mo']","['Br - Non-Metal', 'Mn - Metal', 'N - Non-Metal', 'Mo - Metal']","[2.96, 1.55, 3.04, 2.16]",4,"{'Br': 2.0, 'Mn': 3.0, 'N': 4.0, 'Mo': 4.0}",FALSE
CTl3,"['C', 'Tl']","['C - Non-Metal', 'Tl - Metal']","[2.55, 1.62]",2,"{'C': 1.0, 'Tl': 3.0}",TRUE
ZnRhGe2,"['Zn', 'Rh', 'Ge']","['Zn - Metal', 'Rh - Metal', 'Ge - Non-Metal']","[1.65, 2.28, 2.01]",3,"{'Zn': 1.0, 'Rh': 1.0, 'Ge': 2.0}",TRUE
GaAsPt2Si5,"['Ga', 'As', 'Pt', 'Si']","['Ga - Metal', 'As - Non-Metal', 'Pt - Metal', 'Si - Non-Metal']","[1.81, 2.18, 2.28, 1.9]",4,"{'Ga': 1.0, 'As': 1.0, 'Pt': 2.0, 'Si': 5.0}",TRUE
Tm2S3W6,"['Tm', 'S', 'W']","['Tm - Metal', 'S - Non-Metal', 'W - Metal']","[1.25, 2.58, 2.36]",3,"{'Tm': 2.0, 'S': 3.0, 'W': 6.0}",TRUE
Ni2At3Mg5,"['Ni', 'At', 'Mg']","['Ni - Metal', 'At - Non-Metal', 'Mg - Metal']","[1.91, 2.2, 1.31]",3,"{'Ni': 2.0, 'At': 3.0, 'Mg': 5.0}",TRUE
W2Sn3,"['W', 'Sn']","['W - Metal', 'Sn - Metal']","[2.36, 1.96]",2,"{'W': 2.0, 'Sn': 3.0}",FALSE
YbTc2Ir3Po6,"['Yb', 'Tc', 'Ir', 'Po']","['Yb - Metal', 'Tc - Metal', 'Ir - Metal', 'Po - Non-Metal']","[1.1, 1.9, 2.2, 2.0]",4,"{'Yb': 1.0, 'Tc': 2.0, 'Ir': 3.0, 'Po': 6.0}",TRUE
ClH5,"['Cl', 'H']","['Cl - Non-Metal', 'H - Unknown']","[3.16, 2.2]",2,"{'Cl': 1.0, 'H': 5.0}",FALSE
GeMo,"['Ge', 'Mo']","['Ge - Non-Metal', 'Mo - Metal']","[2.01, 2.16]",2,"{'Ge': 1.0, 'Mo': 1.0}",TRUE
SeRe,"['Se', 'Re']","['Se - Non-Metal', 'Re - Metal']","[2.55, 1.9]",2,"{'Se': 1.0, 'Re': 1.0}",FALSE
DyAcBr2Po2,"['Dy', 'Ac', 'Br', 'Po']","['Dy - Metal', 'Ac - Metal', 'Br - Non-Metal', 'Po - Non-Metal']","[1.22, 1.1, 2.96, 2.0]",4,"{'Dy': 1.0, 'Ac': 1.0, 'Br': 2.0, 'Po': 2.0}",TRUE
CoKr4Ru5,"['Co', 'Kr', 'Ru']","['Co - Metal', 'Kr - Non-Metal', 'Ru - Metal']","[1.88, 3.0, 2.2]",3,"{'Co': 1.0, 'Kr': 4.0, 'Ru': 5.0}",FALSE
Xe2Ba2Sn3,"['Xe', 'Ba', 'Sn']","['Xe - Non-Metal', 'Ba - Metal', 'Sn - Metal']","[2.6, 0.89, 1.96]",3,"{'Xe': 2.0, 'Ba': 2.0, 'Sn': 3.0}",TRUE
YRnTe2Br3Sc4,"['Y', 'Rn', 'Te', 'Br', 'Sc']","['Y - Metal', 'Rn - Non-Metal', 'Te - Non-Metal', 'Br - Non-Metal', 'Sc - Metal']","[1.22, 2.2, 2.1, 2.96, 1.36]",5,"{'Y': 1.0, 'Rn': 1.0, 'Te': 2.0, 'Br': 3.0, 'Sc': 4.0}",TRUE
SNi6,"['S', 'Ni']","['S - Non-Metal', 'Ni - Metal']","[2.58, 1.91]",2,"{'S': 1.0, 'Ni': 6.0}",FALSE
F2,['F'],['F - Non-Metal'],[3.98],1,{'F': 2.0},FALSE
PbF2,"['Pb', 'F']","['Pb - Metal', 'F - Non-Metal']","[2.33, 3.98]",2,"{'Pb': 1.0, 'F': 2.0}",FALSE
RuF2Mn2C5,"['Ru', 'F', 'Mn', 'C']","['Ru - Metal', 'F - Non-Metal', 'Mn - Metal', 'C - Non-Metal']","[2.2, 3.98, 1.55, 2.55]",4,"{'Ru': 1.0, 'F': 2.0, 'Mn': 2.0, 'C': 5.0}",FALSE
RaPt2At2,"['Ra', 'Pt', 'At']","['Ra - Metal', 'Pt - Metal', 'At - Non-Metal']","[0.9, 2.28, 2.2]",3,"{'Ra': 1.0, 'Pt': 2.0, 'At': 2.0}",TRUE
PXe,"['P', 'Xe']","['P - Non-Metal', 'Xe - Non-Metal']","[2.19, 2.6]",2,"{'P': 1.0, 'Xe': 1.0}",FALSE
S2P3Er4,"['S', 'P', 'Er']","['S - Non-Metal', 'P - Non-Metal', 'Er - Metal']","[2.58, 2.19, 1.24]",3,"{'S': 2.0, 'P': 3.0, 'Er': 4.0}",TRUE
MnSnHgS2,"['Mn', 'Sn', 'Hg', 'S']","['Mn - Metal', 'Sn - Metal', 'Hg - Metal', 'S - Non-Metal']","[1.55, 1.96, 2.0, 2.58]",4,"{'Mn': 1.0, 'Sn': 1.0, 'Hg': 1.0, 'S': 2.0}",TRUE
SeHfGe5,"['Se', 'Hf', 'Ge']","['Se - Non-Metal', 'Hf - Metal', 'Ge - Non-Metal']","[2.55, 1.3, 2.01]",3,"{'Se': 1.0, 'Hf': 1.0, 'Ge': 5.0}",TRUE
Ge2Tc3Br4Ca5,"['Ge', 'Tc', 'Br', 'Ca']","['Ge - Non-Metal', 'Tc - Metal', 'Br - Non-Metal', 'Ca - Metal']","[2.01, 1.9, 2.96, 1.0]",4,"{'Ge': 2.0, 'Tc': 3.0, 'Br': 4.0, 'Ca': 5.0}",TRUE
TiBrMn4Cd7,"['Ti', 'Br', 'Mn', 'Cd']","['Ti - Metal', 'Br - Non-Metal', 'Mn - Metal', 'Cd - Metal']","[1.54, 2.96, 1.55, 1.69]",4,"{'Ti': 1.0, 'Br': 1.0, 'Mn': 4.0, 'Cd': 7.0}",TRUE
ClV4Ge4Zr5,"['Cl', 'V', 'Ge', 'Zr']","['Cl - Non-Metal', 'V - Metal', 'Ge - Non-Metal', 'Zr - Metal']","[3.16, 1.63, 2.01, 1.33]",4,"{'Cl': 1.0, 'V': 4.0, 'Ge': 4.0, 'Zr': 5.0}",TRUE
OP2,"['O', 'P']","['O - Non-Metal', 'P - Non-Metal']","[3.44, 2.19]",2,"{'O': 1.0, 'P': 2.0}",FALSE
Sm2Ge3,"['Sm', 'Ge']","['Sm - Metal', 'Ge - Non-Metal']","[1.17, 2.01]",2,"{'Sm': 2.0, 'Ge': 3.0}",TRUE
Bi2As3,"['Bi', 'As']","['Bi - Metal', 'As - Non-Metal']","[2.02, 2.18]",2,"{'Bi': 2.0, 'As': 3.0}",TRUE
ClIAs2Pt3,"['Cl', 'I', 'As', 'Pt']","['Cl - Non-Metal', 'I - Non-Metal', 'As - Non-Metal', 'Pt - Metal']","[3.16, 2.66, 2.18, 2.28]",4,"{'Cl': 1.0, 'I': 1.0, 'As': 2.0, 'Pt': 3.0}",FALSE
PaI4Ta6,"['Pa', 'I', 'Ta']","['Pa - Metal', 'I - Non-Metal', 'Ta - Metal']","[1.5, 2.66, 1.5]",3,"{'Pa': 1.0, 'I': 4.0, 'Ta': 6.0}",TRUE
MnSe3,"['Mn', 'Se']","['Mn - Metal', 'Se - Non-Metal']","[1.55, 2.55]",2,"{'Mn': 1.0, 'Se': 3.0}",TRUE
AsCl5Ti6,"['As', 'Cl', 'Ti']","['As - Non-Metal', 'Cl - Non-Metal', 'Ti - Metal']","[2.18, 3.16, 1.54]",3,"{'As': 1.0, 'Cl': 5.0, 'Ti': 6.0}",FALSE
Re2Cl3,"['Re', 'Cl']","['Re - Metal', 'Cl - Non-Metal']","[1.9, 3.16]",2,"{'Re': 2.0, 'Cl': 3.0}",FALSE
RhTeMo8,"['Rh', 'Te', 'Mo']","['Rh - Metal', 'Te - Non-Metal', 'Mo - Metal']","[2.28, 2.1, 2.16]",3,"{'Rh': 1.0, 'Te': 1.0, 'Mo': 8.0}",FALSE
FeBr2Gd2Te3,"['Fe', 'Br', 'Gd', 'Te']","['Fe - Metal', 'Br - Non-Metal', 'Gd - Metal', 'Te - Non-Metal']","[1.83, 2.96, 1.2, 2.1]",4,"{'Fe': 1.0, 'Br': 2.0, 'Gd': 2.0, 'Te': 3.0}",TRUE
VS3,"['V', 'S']","['V - Metal', 'S - Non-Metal']","[1.63, 2.58]",2,"{'V': 1.0, 'S': 3.0}",FALSE
GaGe,"['Ga', 'Ge']","['Ga - Metal', 'Ge - Non-Metal']","[1.81, 2.01]",2,"{'Ga': 1.0, 'Ge': 1.0}",TRUE
ClRe7,"['Cl', 'Re']","['Cl - Non-Metal', 'Re - Metal']","[3.16, 1.9]",2,"{'Cl': 1.0, 'Re': 7.0}",FALSE
ClNb2Te3,"['Cl', 'Nb', 'Te']","['Cl - Non-Metal', 'Nb - Metal', 'Te - Non-Metal']","[3.16, 1.6, 2.1]",3,"{'Cl': 1.0, 'Nb': 2.0, 'Te': 3.0}",FALSE
MoErY3Te4,"['Mo', 'Er', 'Y', 'Te']","['Mo - Metal', 'Er - Metal', 'Y - Metal', 'Te - Non-Metal']","[2.16, 1.24, 1.22, 2.1]",4,"{'Mo': 1.0, 'Er': 1.0, 'Y': 3.0, 'Te': 4.0}",TRUE
WAmSe2,"['W', 'Am', 'Se']","['W - Metal', 'Am - Metal', 'Se - Non-Metal']","[2.36, 1.3, 2.55]",3,"{'W': 1.0, 'Am': 1.0, 'Se': 2.0}",TRUE
TaMo2O3Tb4,"['Ta', 'Mo', 'O', 'Tb']","['Ta - Metal', 'Mo - Metal', 'O - Non-Metal', 'Tb - Metal']","[1.5, 2.16, 3.44, 1.1]",4,"{'Ta': 1.0, 'Mo': 2.0, 'O': 3.0, 'Tb': 4.0}",TRUE
ZnZrCmMg3Te5,"['Zn', 'Zr', 'Cm', 'Mg', 'Te']","['Zn - Metal', 'Zr - Metal', 'Cm - Metal', 'Mg - Metal', 'Te - Non-Metal']","[1.65, 1.33, 1.3, 1.31, 2.1]",5,"{'Zn': 1.0, 'Zr': 1.0, 'Cm': 1.0, 'Mg': 3.0, 'Te': 5.0}",TRUE
F4,['F'],['F - Non-Metal'],[3.98],1,{'F': 4.0},FALSE
NpBr4,"['Np', 'Br']","['Np - Metal', 'Br - Non-Metal']","[1.36, 2.96]",2,"{'Np': 1.0, 'Br': 4.0}",FALSE
GeAs3,"['Ge', 'As']","['Ge - Non-Metal', 'As - Non-Metal']","[2.01, 2.18]",2,"{'Ge': 1.0, 'As': 3.0}",TRUE
GeAg2,"['Ge', 'Ag']","['Ge - Non-Metal', 'Ag - Metal']","[2.01, 1.93]",2,"{'Ge': 1.0, 'Ag': 2.0}",TRUE
Y2Te3Ru6,"['Y', 'Te', 'Ru']","['Y - Metal', 'Te - Non-Metal', 'Ru - Metal']","[1.22, 2.1, 2.2]",3,"{'Y': 2.0, 'Te': 3.0, 'Ru': 6.0}",TRUE
HfSn4P5,"['Hf', 'Sn', 'P']","['Hf - Metal', 'Sn - Metal', 'P - Non-Metal']","[1.3, 1.96, 2.19]",3,"{'Hf': 1.0, 'Sn': 4.0, 'P': 5.0}",TRUE
V2Ag2Pb3,"['V', 'Ag', 'Pb']","['V - Metal', 'Ag - Metal', 'Pb - Metal']","[1.63, 1.93, 2.33]",3,"{'V': 2.0, 'Ag': 2.0, 'Pb': 3.0}",TRUE
Ta2Rn3Cr4,"['Ta', 'Rn', 'Cr']","['Ta - Metal', 'Rn - Non-Metal', 'Cr - Metal']","[1.5, 2.2, 1.66]",3,"{'Ta': 2.0, 'Rn': 3.0, 'Cr': 4.0}",TRUE
CuV3S7,"['Cu', 'V', 'S']","['Cu - Metal', 'V - Metal', 'S - Non-Metal']","[1.9, 1.63, 2.58]",3,"{'Cu': 1.0, 'V': 3.0, 'S': 7.0}",TRUE
CdAt4Mo7,"['Cd', 'At', 'Mo']","['Cd - Metal', 'At - Non-Metal', 'Mo - Metal']","[1.69, 2.2, 2.16]",3,"{'Cd': 1.0, 'At': 4.0, 'Mo': 7.0}",TRUE
Am2Ge3I4,"['Am', 'Ge', 'I']","['Am - Metal', 'Ge - Non-Metal', 'I - Non-Metal']","[1.3, 2.01, 2.66]",3,"{'Am': 2.0, 'Ge': 3.0, 'I': 4.0}",TRUE
Ge2Ga3,"['Ge', 'Ga']","['Ge - Non-Metal', 'Ga - Metal']","[2.01, 1.81]",2,"{'Ge': 2.0, 'Ga': 3.0}",TRUE
TaNi2Se2Ti7,"['Ta', 'Ni', 'Se', 'Ti']","['Ta - Metal', 'Ni - Metal', 'Se - Non-Metal', 'Ti - Metal']","[1.5, 1.91, 2.55, 1.54]",4,"{'Ta': 1.0, 'Ni': 2.0, 'Se': 2.0, 'Ti': 7.0}",TRUE
S2Cl2Tc3,"['S', 'Cl', 'Tc']","['S - Non-Metal', 'Cl - Non-Metal', 'Tc - Metal']","[2.58, 3.16, 1.9]",3,"{'S': 2.0, 'Cl': 2.0, 'Tc': 3.0}",FALSE
Br3As5,"['Br', 'As']","['Br - Non-Metal', 'As - Non-Metal']","[2.96, 2.18]",2,"{'Br': 3.0, 'As': 5.0}",FALSE
RhO3,"['Rh', 'O']","['Rh - Metal', 'O - Non-Metal']","[2.28, 3.44]",2,"{'Rh': 1.0, 'O': 3.0}",FALSE
In2Ti3Po5,"['In', 'Ti', 'Po']","['In - Metal', 'Ti - Metal', 'Po - Non-Metal']","[1.78, 1.54, 2.0]",3,"{'In': 2.0, 'Ti': 3.0, 'Po': 5.0}",TRUE
OTl2,"['O', 'Tl']","['O - Non-Metal', 'Tl - Metal']","[3.44, 1.62]",2,"{'O': 1.0, 'Tl': 2.0}",FALSE
AmEr2O3,"['Am', 'Er', 'O']","['Am - Metal', 'Er - Metal', 'O - Non-Metal']","[1.3, 1.24, 3.44]",3,"{'Am': 1.0, 'Er': 2.0, 'O': 3.0}",TRUE
RuTe2,"['Ru', 'Te']","['Ru - Metal', 'Te - Non-Metal']","[2.2, 2.1]",2,"{'Ru': 1.0, 'Te': 2.0}",FALSE
I3Tc5,"['I', 'Tc']","['I - Non-Metal', 'Tc - Metal']","[2.66, 1.9]",2,"{'I': 3.0, 'Tc': 5.0}",FALSE
PmSb2At2W6,"['Pm', 'Sb', 'At', 'W']","['Pm - Metal', 'Sb - Non-Metal', 'At - Non-Metal', 'W - Metal']","[1.13, 2.05, 2.2, 2.36]",4,"{'Pm': 1.0, 'Sb': 2.0, 'At': 2.0, 'W': 6.0}",TRUE
FCf2Tc3,"['F', 'Cf', 'Tc']","['F - Non-Metal', 'Cf - Metal', 'Tc - Metal']","[3.98, 1.3, 1.9]",3,"{'F': 1.0, 'Cf': 2.0, 'Tc': 3.0}",FALSE
HgAmO4,"['Hg', 'Am', 'O']","['Hg - Metal', 'Am - Metal', 'O - Non-Metal']","[2.0, 1.3, 3.44]",3,"{'Hg': 1.0, 'Am': 1.0, 'O': 4.0}",FALSE
UI2,"['U', 'I']","['U - Metal', 'I - Non-Metal']","[1.38, 2.66]",2,"{'U': 1.0, 'I': 2.0}",TRUE
AsGe2,"['As', 'Ge']","['As - Non-Metal', 'Ge - Non-Metal']","[2.18, 2.01]",2,"{'As': 1.0, 'Ge': 2.0}",TRUE
Tm2Sn3O5,"['Tm', 'Sn', 'O']","['Tm - Metal', 'Sn - Metal', 'O - Non-Metal']","[1.25, 1.96, 3.44]",3,"{'Tm': 2.0, 'Sn': 3.0, 'O': 5.0}",FALSE
ClTc5Be7,"['Cl', 'Tc', 'Be']","['Cl - Non-Metal', 'Tc - Metal', 'Be - Metal']","[3.16, 1.9, 1.57]",3,"{'Cl': 1.0, 'Tc': 5.0, 'Be': 7.0}",FALSE
MnPo2,"['Mn', 'Po']","['Mn - Metal', 'Po - Non-Metal']","[1.55, 2.0]",2,"{'Mn': 1.0, 'Po': 2.0}",TRUE
HgS2Mn5Pb5,"['Hg', 'S', 'Mn', 'Pb']","['Hg - Metal', 'S - Non-Metal', 'Mn - Metal', 'Pb - Metal']","[2.0, 2.58, 1.55, 2.33]",4,"{'Hg': 1.0, 'S': 2.0, 'Mn': 5.0, 'Pb': 5.0}",FALSE
MgNbBi3Tl6,"['Mg', 'Nb', 'Bi', 'Tl']","['Mg - Metal', 'Nb - Metal', 'Bi - Metal', 'Tl - Metal']","[1.31, 1.6, 2.02, 1.62]",4,"{'Mg': 1.0, 'Nb': 1.0, 'Bi': 3.0, 'Tl': 6.0}",TRUE
RuSe3,"['Ru', 'Se']","['Ru - Metal', 'Se - Non-Metal']","[2.2, 2.55]",2,"{'Ru': 1.0, 'Se': 3.0}",FALSE
Po2W3Os4,"['Po', 'W', 'Os']","['Po - Non-Metal', 'W - Metal', 'Os - Metal']","[2.0, 2.36, 2.2]",3,"{'Po': 2.0, 'W': 3.0, 'Os': 4.0}",FALSE
ZnBr2Ir7,"['Zn', 'Br', 'Ir']","['Zn - Metal', 'Br - Non-Metal', 'Ir - Metal']","[1.65, 2.96, 2.2]",3,"{'Zn': 1.0, 'Br': 2.0, 'Ir': 7.0}",FALSE
FmSe3Hg3,"['Fm', 'Se', 'Hg']","['Fm - Metal', 'Se - Non-Metal', 'Hg - Metal']","[1.3, 2.55, 2.0]",3,"{'Fm': 1.0, 'Se': 3.0, 'Hg': 3.0}",TRUE
AtRe7,"['At', 'Re']","['At - Non-Metal', 'Re - Metal']","[2.2, 1.9]",2,"{'At': 1.0, 'Re': 7.0}",TRUE
RhC4Bi5,"['Rh', 'C', 'Bi']","['Rh - Metal', 'C - Non-Metal', 'Bi - Metal']","[2.28, 2.55, 2.02]",3,"{'Rh': 1.0, 'C': 4.0, 'Bi': 5.0}",FALSE
ClAt6,"['Cl', 'At']","['Cl - Non-Metal', 'At - Non-Metal']","[3.16, 2.2]",2,"{'Cl': 1.0, 'At': 6.0}",FALSE
ClC3,"['Cl', 'C']","['Cl - Non-Metal', 'C - Non-Metal']","[3.16, 2.55]",2,"{'Cl': 1.0, 'C': 3.0}",FALSE
At2Cm3Ge5,"['At', 'Cm', 'Ge']","['At - Non-Metal', 'Cm - Metal', 'Ge - Non-Metal']","[2.2, 1.3, 2.01]",3,"{'At': 2.0, 'Cm': 3.0, 'Ge': 5.0}",TRUE
Au2Po5,"['Au', 'Po']","['Au - Metal', 'Po - Non-Metal']","[2.54, 2.0]",2,"{'Au': 2.0, 'Po': 5.0}",FALSE
Fe3Ir3Sb5,"['Fe', 'Ir', 'Sb']","['Fe - Metal', 'Ir - Metal', 'Sb - Non-Metal']","[1.83, 2.2, 2.05]",3,"{'Fe': 3.0, 'Ir': 3.0, 'Sb': 5.0}",TRUE
S4H5Os7,"['S', 'H', 'Os']","['S - Non-Metal', 'H - Unknown', 'Os - Metal']","[2.58, 2.2, 2.2]",3,"{'S': 4.0, 'H': 5.0, 'Os': 7.0}",FALSE
MoI2Ir3B4,"['Mo', 'I', 'Ir', 'B']","['Mo - Metal', 'I - Non-Metal', 'Ir - Metal', 'B - Non-Metal']","[2.16, 2.66, 2.2, 2.04]",4,"{'Mo': 1.0, 'I': 2.0, 'Ir': 3.0, 'B': 4.0}",FALSE
I3Pt4Zr7,"['I', 'Pt', 'Zr']","['I - Non-Metal', 'Pt - Metal', 'Zr - Metal']","[2.66, 2.28, 1.33]",3,"{'I': 3.0, 'Pt': 4.0, 'Zr': 7.0}",TRUE
NdAt2,"['Nd', 'At']","['Nd - Metal', 'At - Non-Metal']","[1.14, 2.2]",2,"{'Nd': 1.0, 'At': 2.0}",TRUE
ClZrNi7,"['Cl', 'Zr', 'Ni']","['Cl - Non-Metal', 'Zr - Metal', 'Ni - Metal']","[3.16, 1.33, 1.91]",3,"{'Cl': 1.0, 'Zr': 1.0, 'Ni': 7.0}",FALSE
OZr,"['O', 'Zr']","['O - Non-Metal', 'Zr - Metal']","[3.44, 1.33]",2,"{'O': 1.0, 'Zr': 1.0}",FALSE
SiZr,"['Si', 'Zr']","['Si - Non-Metal', 'Zr - Metal']","[1.9, 1.33]",2,"{'Si': 1.0, 'Zr': 1.0}",TRUE
Xe,['Xe'],['Xe - Non-Metal'],[2.6],1,{'Xe': 1.0},FALSE
LiTbS2Tc7,"['Li', 'Tb', 'S', 'Tc']","['Li - Metal', 'Tb - Metal', 'S - Non-Metal', 'Tc - Metal']","[0.98, 1.1, 2.58, 1.9]",4,"{'Li': 1.0, 'Tb': 1.0, 'S': 2.0, 'Tc': 7.0}",TRUE
BIr2S3,"['B', 'Ir', 'S']","['B - Non-Metal', 'Ir - Metal', 'S - Non-Metal']","[2.04, 2.2, 2.58]",3,"{'B': 1.0, 'Ir': 2.0, 'S': 3.0}",FALSE
Lu2Er3S6,"['Lu', 'Er', 'S']","['Lu - Metal', 'Er - Metal', 'S - Non-Metal']","[1.27, 1.24, 2.58]",3,"{'Lu': 2.0, 'Er': 3.0, 'S': 6.0}",TRUE
At2Rh3W3B4,"['At', 'Rh', 'W', 'B']","['At - Non-Metal', 'Rh - Metal', 'W - Metal', 'B - Non-Metal']","[2.2, 2.28, 2.36, 2.04]",4,"{'At': 2.0, 'Rh': 3.0, 'W': 3.0, 'B': 4.0}",FALSE
I2Sc4Se5,"['I', 'Sc', 'Se']","['I - Non-Metal', 'Sc - Metal', 'Se - Non-Metal']","[2.66, 1.36, 2.55]",3,"{'I': 2.0, 'Sc': 4.0, 'Se': 5.0}",FALSE
OsUBr2,"['Os', 'U', 'Br']","['Os - Metal', 'U - Metal', 'Br - Non-Metal']","[2.2, 1.38, 2.96]",3,"{'Os': 1.0, 'U': 1.0, 'Br': 2.0}",FALSE
Md2Cl3Co7,"['Md', 'Cl', 'Co']","['Md - Metal', 'Cl - Non-Metal', 'Co - Metal']","[1.3, 3.16, 1.88]",3,"{'Md': 2.0, 'Cl': 3.0, 'Co': 7.0}",FALSE
PuB2Po3,"['Pu', 'B', 'Po']","['Pu - Metal', 'B - Non-Metal', 'Po - Non-Metal']","[1.28, 2.04, 2.0]",3,"{'Pu': 1.0, 'B': 2.0, 'Po': 3.0}",TRUE
OsNd2Sb3,"['Os', 'Nd', 'Sb']","['Os - Metal', 'Nd - Metal', 'Sb - Non-Metal']","[2.2, 1.14, 2.05]",3,"{'Os': 1.0, 'Nd': 2.0, 'Sb': 3.0}",TRUE
BeS2,"['Be', 'S']","['Be - Metal', 'S - Non-Metal']","[1.57, 2.58]",2,"{'Be': 1.0, 'S': 2.0}",TRUE
ClC2,"['Cl', 'C']","['Cl - Non-Metal', 'C - Non-Metal']","[3.16, 2.55]",2,"{'Cl': 1.0, 'C': 2.0}",FALSE
SeN6,"['Se', 'N']","['Se - Non-Metal', 'N - Non-Metal']","[2.55, 3.04]",2,"{'Se': 1.0, 'N': 6.0}",FALSE
S3Tc4,"['S', 'Tc']","['S - Non-Metal', 'Tc - Metal']","[2.58, 1.9]",2,"{'S': 3.0, 'Tc': 4.0}",FALSE
Br2Ho3At4,"['Br', 'Ho', 'At']","['Br - Non-Metal', 'Ho - Metal', 'At - Non-Metal']","[2.96, 1.23, 2.2]",3,"{'Br': 2.0, 'Ho': 3.0, 'At': 4.0}",FALSE
AsIrC2Br4,"['As', 'Ir', 'C', 'Br']","['As - Non-Metal', 'Ir - Metal', 'C - Non-Metal', 'Br - Non-Metal']","[2.18, 2.2, 2.55, 2.96]",4,"{'As': 1.0, 'Ir': 1.0, 'C': 2.0, 'Br': 4.0}",FALSE
RhP6,"['Rh', 'P']","['Rh - Metal', 'P - Non-Metal']","[2.28, 2.19]",2,"{'Rh': 1.0, 'P': 6.0}",FALSE
NbSb,"['Nb', 'Sb']","['Nb - Metal', 'Sb - Non-Metal']","[1.6, 2.05]",2,"{'Nb': 1.0, 'Sb': 1.0}",TRUE
MnBr2,"['Mn', 'Br']","['Mn - Metal', 'Br - Non-Metal']","[1.55, 2.96]",2,"{'Mn': 1.0, 'Br': 2.0}",FALSE
PoGe3Sm4,"['Po', 'Ge', 'Sm']","['Po - Non-Metal', 'Ge - Non-Metal', 'Sm - Metal']","[2.0, 2.01, 1.17]",3,"{'Po': 1.0, 'Ge': 3.0, 'Sm': 4.0}",TRUE
OCoAs2Ni6,"['O', 'Co', 'As', 'Ni']","['O - Non-Metal', 'Co - Metal', 'As - Non-Metal', 'Ni - Metal']","[3.44, 1.88, 2.18, 1.91]",4,"{'O': 1.0, 'Co': 1.0, 'As': 2.0, 'Ni': 6.0}",FALSE
SiZn2Dy2Pd3Po4,"['Si', 'Zn', 'Dy', 'Pd', 'Po']","['Si - Non-Metal', 'Zn - Metal', 'Dy - Metal', 'Pd - Metal', 'Po - Non-Metal']","[1.9, 1.65, 1.22, 2.2, 2.0]",5,"{'Si': 1.0, 'Zn': 2.0, 'Dy': 2.0, 'Pd': 3.0, 'Po': 4.0}",TRUE
PoC6,"['Po', 'C']","['Po - Non-Metal', 'C - Non-Metal']","[2.0, 2.55]",2,"{'Po': 1.0, 'C': 6.0}",FALSE
UFe3O4,"['U', 'Fe', 'O']","['U - Metal', 'Fe - Metal', 'O - Non-Metal']","[1.38, 1.83, 3.44]",3,"{'U': 1.0, 'Fe': 3.0, 'O': 4.0}",FALSE
GeYbB2,"['Ge', 'Yb', 'B']","['Ge - Non-Metal', 'Yb - Metal', 'B - Non-Metal']","[2.01, 1.1, 2.04]",3,"{'Ge': 1.0, 'Yb': 1.0, 'B': 2.0}",TRUE
PAs,"['P', 'As']","['P - Non-Metal', 'As - Non-Metal']","[2.19, 2.18]",2,"{'P': 1.0, 'As': 1.0}",FALSE
ClTa3,"['Cl', 'Ta']","['Cl - Non-Metal', 'Ta - Metal']","[3.16, 1.5]",2,"{'Cl': 1.0, 'Ta': 3.0}",FALSE
LiRe2Rh3Te4,"['Li', 'Re', 'Rh', 'Te']","['Li - Metal', 'Re - Metal', 'Rh - Metal', 'Te - Non-Metal']","[0.98, 1.9, 2.28, 2.1]",4,"{'Li': 1.0, 'Re': 2.0, 'Rh': 3.0, 'Te': 4.0}",TRUE
Mn2Po5,"['Mn', 'Po']","['Mn - Metal', 'Po - Non-Metal']","[1.55, 2.0]",2,"{'Mn': 2.0, 'Po': 5.0}",TRUE
Lu2B3O3V6,"['Lu', 'B', 'O', 'V']","['Lu - Metal', 'B - Non-Metal', 'O - Non-Metal', 'V - Metal']","[1.27, 2.04, 3.44, 1.63]",4,"{'Lu': 2.0, 'B': 3.0, 'O': 3.0, 'V': 6.0}",TRUE
CaFe2Ni2I5,"['Ca', 'Fe', 'Ni', 'I']","['Ca - Metal', 'Fe - Metal', 'Ni - Metal', 'I - Non-Metal']","[1.0, 1.83, 1.91, 2.66]",4,"{'Ca': 1.0, 'Fe': 2.0, 'Ni': 2.0, 'I': 5.0}",TRUE
AuAtPd3Fe6,"['Au', 'At', 'Pd', 'Fe']","['Au - Metal', 'At - Non-Metal', 'Pd - Metal', 'Fe - Metal']","[2.54, 2.2, 2.2, 1.83]",4,"{'Au': 1.0, 'At': 1.0, 'Pd': 3.0, 'Fe': 6.0}",FALSE
NiReGe3Po5,"['Ni', 'Re', 'Ge', 'Po']","['Ni - Metal', 'Re - Metal', 'Ge - Non-Metal', 'Po - Non-Metal']","[1.91, 1.9, 2.01, 2.0]",4,"{'Ni': 1.0, 'Re': 1.0, 'Ge': 3.0, 'Po': 5.0}",TRUE
SbRe,"['Sb', 'Re']","['Sb - Non-Metal', 'Re - Metal']","[2.05, 1.9]",2,"{'Sb': 1.0, 'Re': 1.0}",TRUE
BrGe7,"['Br', 'Ge']","['Br - Non-Metal', 'Ge - Non-Metal']","[2.96, 2.01]",2,"{'Br': 1.0, 'Ge': 7.0}",FALSE
PdXe2W6,"['Pd', 'Xe', 'W']","['Pd - Metal', 'Xe - Non-Metal', 'W - Metal']","[2.2, 2.6, 2.36]",3,"{'Pd': 1.0, 'Xe': 2.0, 'W': 6.0}",FALSE
Tc2Rn2Sn3,"['Tc', 'Rn', 'Sn']","['Tc - Metal', 'Rn - Non-Metal', 'Sn - Metal']","[1.9, 2.2, 1.96]",3,"{'Tc': 2.0, 'Rn': 2.0, 'Sn': 3.0}",TRUE
TcPo2Pr3Sb4,"['Tc', 'Po', 'Pr', 'Sb']","['Tc - Metal', 'Po - Non-Metal', 'Pr - Metal', 'Sb - Non-Metal']","[1.9, 2.0, 1.13, 2.05]",4,"{'Tc': 1.0, 'Po': 2.0, 'Pr': 3.0, 'Sb': 4.0}",TRUE
RhBr3Re6,"['Rh', 'Br', 'Re']","['Rh - Metal', 'Br - Non-Metal', 'Re - Metal']","[2.28, 2.96, 1.9]",3,"{'Rh': 1.0, 'Br': 3.0, 'Re': 6.0}",FALSE
Se2Ru2Mn7,"['Se', 'Ru', 'Mn']","['Se - Non-Metal', 'Ru - Metal', 'Mn - Metal']","[2.55, 2.2, 1.55]",3,"{'Se': 2.0, 'Ru': 2.0, 'Mn': 7.0}",TRUE
InO2,"['In', 'O']","['In - Metal', 'O - Non-Metal']","[1.78, 3.44]",2,"{'In': 1.0, 'O': 2.0}",FALSE
Bi2Mo3,"['Bi', 'Mo']","['Bi - Metal', 'Mo - Metal']","[2.02, 2.16]",2,"{'Bi': 2.0, 'Mo': 3.0}",TRUE
YZr2Se4,"['Y', 'Zr', 'Se']","['Y - Metal', 'Zr - Metal', 'Se - Non-Metal']","[1.22, 1.33, 2.55]",3,"{'Y': 1.0, 'Zr': 2.0, 'Se': 4.0}",TRUE
Br2S5,"['Br', 'S']","['Br - Non-Metal', 'S - Non-Metal']","[2.96, 2.58]",2,"{'Br': 2.0, 'S': 5.0}",FALSE
YbAs2Se4,"['Yb', 'As', 'Se']","['Yb - Metal', 'As - Non-Metal', 'Se - Non-Metal']","[1.1, 2.18, 2.55]",3,"{'Yb': 1.0, 'As': 2.0, 'Se': 4.0}",TRUE
ITh3S4,"['I', 'Th', 'S']","['I - Non-Metal', 'Th - Metal', 'S - Non-Metal']","[2.66, 1.3, 2.58]",3,"{'I': 1.0, 'Th': 3.0, 'S': 4.0}",FALSE
KrCo2,"['Kr', 'Co']","['Kr - Non-Metal', 'Co - Metal']","[3.0, 1.88]",2,"{'Kr': 1.0, 'Co': 2.0}",FALSE