formula,Elements,Metal_NonMetal,Electronegativity,Num_Elements,Atomic_Composition,Is_Metal
Sb2Rn3,"['Sb', 'Rn']","['Sb - Non-Metal', 'Rn - Non-Metal']","[2.05, 2.2]",2,"{'Sb': 2.0, 'Rn': 3.0}",FALSE
N2Ac2Br3Mn7,"['N', 'Ac', 'Br', 'Mn']","['N - Non-Metal', 'Ac - Metal', 'Br - Non-Metal', 'Mn - Metal']","[3.04, 1.1, 2.96, 1.55]",4,"{'N': 2.0, 'Ac': 2.0, 'Br': 3.0, 'Mn': 7.0}",FALSE
Ti2Fe3Xe4,"['Ti', 'Fe', 'Xe']","['Ti - Metal', 'Fe - Metal', 'Xe - Non-Metal']","[1.54, 1.83, 2.6]",3,"{'Ti': 2.0, 'Fe': 3.0, 'Xe': 4.0}",TRUE
PtAt3,"['Pt', 'At']","['Pt - Metal', 'At - Non-Metal']","[2.28, 2.2]",2,"{'Pt': 1.0, 'At': 3.0}",FALSE
Pt2Ho3As5,"['Pt', 'Ho', 'As']","['Pt - Metal', 'Ho - Metal', 'As - Non-Metal']","[2.28, 1.23, 2.18]",3,"{'Pt': 2.0, 'Ho': 3.0, 'As': 5.0}",TRUE
BrH3,"['Br', 'H']","['Br - Non-Metal', 'H - Unknown']","[2.96, 2.2]",2,"{'Br': 1.0, 'H': 3.0}",FALSE
PoBe2Mo4,"['Po', 'Be', 'Mo']","['Po - Non-Metal', 'Be - Metal', 'Mo - Metal']","[2.0, 1.57, 2.16]",3,"{'Po': 1.0, 'Be': 2.0, 'Mo': 4.0}",TRUE
Mo2Xe2Os5,"['Mo', 'Xe', 'Os']","['Mo - Metal', 'Xe - Non-Metal', 'Os - Metal']","[2.16, 2.6, 2.2]",3,"{'Mo': 2.0, 'Xe': 2.0, 'Os': 5.0}",FALSE
Rh2Br5Cr6,"['Rh', 'Br', 'Cr']","['Rh - Metal', 'Br - Non-Metal', 'Cr - Metal']","[2.28, 2.96, 1.66]",3,"{'Rh': 2.0, 'Br': 5.0, 'Cr': 6.0}",FALSE
Zn2Eu2S5,"['Zn', 'Eu', 'S']","['Zn - Metal', 'Eu - Metal', 'S - Non-Metal']","[1.65, 1.2, 2.58]",3,"{'Zn': 2.0, 'Eu': 2.0, 'S': 5.0}",TRUE
Li2Ag2Na3Br3,"['Li', 'Ag', 'Na', 'Br']","['Li - Metal', 'Ag - Metal', 'Na - Metal', 'Br - Non-Metal']","[0.98, 1.93, 0.93, 2.96]",4,"{'Li': 2.0, 'Ag': 2.0, 'Na': 3.0, 'Br': 3.0}",TRUE
CSeCd5,"['C', 'Se', 'Cd']","['C - Non-Metal', 'Se - Non-Metal', 'Cd - Metal']","[2.55, 2.55, 1.69]",3,"{'C': 1.0, 'Se': 1.0, 'Cd': 5.0}",FALSE
IrS4Cd7,"['Ir', 'S', 'Cd']","['Ir - Metal', 'S - Non-Metal', 'Cd - Metal']","[2.2, 2.58, 1.69]",3,"{'Ir': 1.0, 'S': 4.0, 'Cd': 7.0}",FALSE
CAu,"['C', 'Au']","['C - Non-Metal', 'Au - Metal']","[2.55, 2.54]",2,"{'C': 1.0, 'Au': 1.0}",FALSE
PrXe2Os3,"['Pr', 'Xe', 'Os']","['Pr - Metal', 'Xe - Non-Metal', 'Os - Metal']","[1.13, 2.6, 2.2]",3,"{'Pr': 1.0, 'Xe': 2.0, 'Os': 3.0}",TRUE
I2Sc4Fe5,"['I', 'Sc', 'Fe']","['I - Non-Metal', 'Sc - Metal', 'Fe - Metal']","[2.66, 1.36, 1.83]",3,"{'I': 2.0, 'Sc': 4.0, 'Fe': 5.0}",TRUE
Cr2Po3Ti5,"['Cr', 'Po', 'Ti']","['Cr - Metal', 'Po - Non-Metal', 'Ti - Metal']","[1.66, 2.0, 1.54]",3,"{'Cr': 2.0, 'Po': 3.0, 'Ti': 5.0}",TRUE
MgBr4Co5,"['Mg', 'Br', 'Co']","['Mg - Metal', 'Br - Non-Metal', 'Co - Metal']","[1.31, 2.96, 1.88]",3,"{'Mg': 1.0, 'Br': 4.0, 'Co': 5.0}",TRUE
GeSmTc3Ir3Se4,"['Ge', 'Sm', 'Tc', 'Ir', 'Se']","['Ge - Non-Metal', 'Sm - Metal', 'Tc - Metal', 'Ir - Metal', 'Se - Non-Metal']","[2.01, 1.17, 1.9, 2.2, 2.55]",5,"{'Ge': 1.0, 'Sm': 1.0, 'Tc': 3.0, 'Ir': 3.0, 'Se': 4.0}",TRUE
RePb,"['Re', 'Pb']","['Re - Metal', 'Pb - Metal']","[1.9, 2.33]",2,"{'Re': 1.0, 'Pb': 1.0}",FALSE
ZrHf2Rh3Sb3,"['Zr', 'Hf', 'Rh', 'Sb']","['Zr - Metal', 'Hf - Metal', 'Rh - Metal', 'Sb - Non-Metal']","[1.33, 1.3, 2.28, 2.05]",4,"{'Zr': 1.0, 'Hf': 2.0, 'Rh': 3.0, 'Sb': 3.0}",TRUE
HgNb4Po6,"['Hg', 'Nb', 'Po']","['Hg - Metal', 'Nb - Metal', 'Po - Non-Metal']","[2.0, 1.6, 2.0]",3,"{'Hg': 1.0, 'Nb': 4.0, 'Po': 6.0}",TRUE
PuCmBi2,"['Pu', 'Cm', 'Bi']","['Pu - Metal', 'Cm - Metal', 'Bi - Metal']","[1.28, 1.3, 2.02]",3,"{'Pu': 1.0, 'Cm': 1.0, 'Bi': 2.0}",TRUE
BiO2Zn7,"['Bi', 'O', 'Zn']","['Bi - Metal', 'O - Non-Metal', 'Zn - Metal']","[2.02, 3.44, 1.65]",3,"{'Bi': 1.0, 'O': 2.0, 'Zn': 7.0}",FALSE
IrCfSe3Hg6,"['Ir', 'Cf', 'Se', 'Hg']","['Ir - Metal', 'Cf - Metal', 'Se - Non-Metal', 'Hg - Metal']","[2.2, 1.3, 2.55, 2.0]",4,"{'Ir': 1.0, 'Cf': 1.0, 'Se': 3.0, 'Hg': 6.0}",TRUE
BrIrRh2Ge3,"['Br', 'Ir', 'Rh', 'Ge']","['Br - Non-Metal', 'Ir - Metal', 'Rh - Metal', 'Ge - Non-Metal']","[2.96, 2.2, 2.28, 2.01]",4,"{'Br': 1.0, 'Ir': 1.0, 'Rh': 2.0, 'Ge': 3.0}",FALSE
IAu,"['I', 'Au']","['I - Non-Metal', 'Au - Metal']","[2.66, 2.54]",2,"{'I': 1.0, 'Au': 1.0}",FALSE
CrBi,"['Cr', 'Bi']","['Cr - Metal', 'Bi - Metal']","[1.66, 2.02]",2,"{'Cr': 1.0, 'Bi': 1.0}",TRUE
NTe2Tl3Co4,"['N', 'Te', 'Tl', 'Co']","['N - Non-Metal', 'Te - Non-Metal', 'Tl - Metal', 'Co - Metal']","[3.04, 2.1, 1.62, 1.88]",4,"{'N': 1.0, 'Te': 2.0, 'Tl': 3.0, 'Co': 4.0}",FALSE
KrBe3V5,"['Kr', 'Be', 'V']","['Kr - Non-Metal', 'Be - Metal', 'V - Metal']","[3.0, 1.57, 1.63]",3,"{'Kr': 1.0, 'Be': 3.0, 'V': 5.0}",TRUE
CmHo2Sb3,"['Cm', 'Ho', 'Sb']","['Cm - Metal', 'Ho - Metal', 'Sb - Non-Metal']","[1.3, 1.23, 2.05]",3,"{'Cm': 1.0, 'Ho': 2.0, 'Sb': 3.0}",TRUE
Sc3Po3Ir5,"['Sc', 'Po', 'Ir']","['Sc - Metal', 'Po - Non-Metal', 'Ir - Metal']","[1.36, 2.0, 2.2]",3,"{'Sc': 3.0, 'Po': 3.0, 'Ir': 5.0}",TRUE
AsS5V6,"['As', 'S', 'V']","['As - Non-Metal', 'S - Non-Metal', 'V - Metal']","[2.18, 2.58, 1.63]",3,"{'As': 1.0, 'S': 5.0, 'V': 6.0}",FALSE
CeCl3Ir3,"['Ce', 'Cl', 'Ir']","['Ce - Metal', 'Cl - Non-Metal', 'Ir - Metal']","[1.12, 3.16, 2.2]",3,"{'Ce': 1.0, 'Cl': 3.0, 'Ir': 3.0}",FALSE
NPoBr2Fe5,"['N', 'Po', 'Br', 'Fe']","['N - Non-Metal', 'Po - Non-Metal', 'Br - Non-Metal', 'Fe - Metal']","[3.04, 2.0, 2.96, 1.83]",4,"{'N': 1.0, 'Po': 1.0, 'Br': 2.0, 'Fe': 5.0}",FALSE
HgIr2F3Fe6,"['Hg', 'Ir', 'F', 'Fe']","['Hg - Metal', 'Ir - Metal', 'F - Non-Metal', 'Fe - Metal']","[2.0, 2.2, 3.98, 1.83]",4,"{'Hg': 1.0, 'Ir': 2.0, 'F': 3.0, 'Fe': 6.0}",FALSE
HNo2I5,"['H', 'No', 'I']","['H - Unknown', 'No - Metal', 'I - Non-Metal']","[2.2, 1.3, 2.66]",3,"{'H': 1.0, 'No': 2.0, 'I': 5.0}",TRUE
TcP2Mo2,"['Tc', 'P', 'Mo']","['Tc - Metal', 'P - Non-Metal', 'Mo - Metal']","[1.9, 2.19, 2.16]",3,"{'Tc': 1.0, 'P': 2.0, 'Mo': 2.0}",TRUE
GePo2Fe6,"['Ge', 'Po', 'Fe']","['Ge - Non-Metal', 'Po - Non-Metal', 'Fe - Metal']","[2.01, 2.0, 1.83]",3,"{'Ge': 1.0, 'Po': 2.0, 'Fe': 6.0}",TRUE
NiTe2,"['Ni', 'Te']","['Ni - Metal', 'Te - Non-Metal']","[1.91, 2.1]",2,"{'Ni': 1.0, 'Te': 2.0}",TRUE
IrBkSc3S4,"['Ir', 'Bk', 'Sc', 'S']","['Ir - Metal', 'Bk - Metal', 'Sc - Metal', 'S - Non-Metal']","[2.2, 1.3, 1.36, 2.58]",4,"{'Ir': 1.0, 'Bk': 1.0, 'Sc': 3.0, 'S': 4.0}",TRUE
As2Po3,"['As', 'Po']","['As - Non-Metal', 'Po - Non-Metal']","[2.18, 2.0]",2,"{'As': 2.0, 'Po': 3.0}",TRUE
Ni2At2Pt7,"['Ni', 'At', 'Pt']","['Ni - Metal', 'At - Non-Metal', 'Pt - Metal']","[1.91, 2.2, 2.28]",3,"{'Ni': 2.0, 'At': 2.0, 'Pt': 7.0}",FALSE
OsN3,"['Os', 'N']","['Os - Metal', 'N - Non-Metal']","[2.2, 3.04]",2,"{'Os': 1.0, 'N': 3.0}",FALSE
SeZrNi6Re6,"['Se', 'Zr', 'Ni', 'Re']","['Se - Non-Metal', 'Zr - Metal', 'Ni - Metal', 'Re - Metal']","[2.55, 1.33, 1.91, 1.9]",4,"{'Se': 1.0, 'Zr': 1.0, 'Ni': 6.0, 'Re': 6.0}",TRUE
LiCoZrBi2Sn4,"['Li', 'Co', 'Zr', 'Bi', 'Sn']","['Li - Metal', 'Co - Metal', 'Zr - Metal', 'Bi - Metal', 'Sn - Metal']","[0.98, 1.88, 1.33, 2.02, 1.96]",5,"{'Li': 1.0, 'Co': 1.0, 'Zr': 1.0, 'Bi': 2.0, 'Sn': 4.0}",TRUE
PoO6,"['Po', 'O']","['Po - Non-Metal', 'O - Non-Metal']","[2.0, 3.44]",2,"{'Po': 1.0, 'O': 6.0}",FALSE
As2Dy3Ge5,"['As', 'Dy', 'Ge']","['As - Non-Metal', 'Dy - Metal', 'Ge - Non-Metal']","[2.18, 1.22, 2.01]",3,"{'As': 2.0, 'Dy': 3.0, 'Ge': 5.0}",TRUE
TlPo2S3,"['Tl', 'Po', 'S']","['Tl - Metal', 'Po - Non-Metal', 'S - Non-Metal']","[1.62, 2.0, 2.58]",3,"{'Tl': 1.0, 'Po': 2.0, 'S': 3.0}",TRUE
BCl,"['B', 'Cl']","['B - Non-Metal', 'Cl - Non-Metal']","[2.04, 3.16]",2,"{'B': 1.0, 'Cl': 1.0}",FALSE
Cr2Zr2Po2V3Cd3,"['Cr', 'Zr', 'Po', 'V', 'Cd']","['Cr - Metal', 'Zr - Metal', 'Po - Non-Metal', 'V - Metal', 'Cd - Metal']","[1.66, 1.33, 2.0, 1.63, 1.69]",5,"{'Cr': 2.0, 'Zr': 2.0, 'Po': 2.0, 'V': 3.0, 'Cd': 3.0}",TRUE
CrAsRh3,"['Cr', 'As', 'Rh']","['Cr - Metal', 'As - Non-Metal', 'Rh - Metal']","[1.66, 2.18, 2.28]",3,"{'Cr': 1.0, 'As': 1.0, 'Rh': 3.0}",TRUE
Cl2Si3Sc4,"['Cl', 'Si', 'Sc']","['Cl - Non-Metal', 'Si - Non-Metal', 'Sc - Metal']","[3.16, 1.9, 1.36]",3,"{'Cl': 2.0, 'Si': 3.0, 'Sc': 4.0}",FALSE
SLu2Mg4Fe6,"['S', 'Lu', 'Mg', 'Fe']","['S - Non-Metal', 'Lu - Metal', 'Mg - Metal', 'Fe - Metal']","[2.58, 1.27, 1.31, 1.83]",4,"{'S': 1.0, 'Lu': 2.0, 'Mg': 4.0, 'Fe': 6.0}",TRUE
CRe2S3,"['C', 'Re', 'S']","['C - Non-Metal', 'Re - Metal', 'S - Non-Metal']","[2.55, 1.9, 2.58]",3,"{'C': 1.0, 'Re': 2.0, 'S': 3.0}",FALSE
Si2Sc3I3,"['Si', 'Sc', 'I']","['Si - Non-Metal', 'Sc - Metal', 'I - Non-Metal']","[1.9, 1.36, 2.66]",3,"{'Si': 2.0, 'Sc': 3.0, 'I': 3.0}",TRUE
Pd2Ge3,"['Pd', 'Ge']","['Pd - Metal', 'Ge - Non-Metal']","[2.2, 2.01]",2,"{'Pd': 2.0, 'Ge': 3.0}",FALSE
Ge2Kr3Ta8,"['Ge', 'Kr', 'Ta']","['Ge - Non-Metal', 'Kr - Non-Metal', 'Ta - Metal']","[2.01, 3.0, 1.5]",3,"{'Ge': 2.0, 'Kr': 3.0, 'Ta': 8.0}",FALSE
RnRh2O5,"['Rn', 'Rh', 'O']","['Rn - Non-Metal', 'Rh - Metal', 'O - Non-Metal']","[2.2, 2.28, 3.44]",3,"{'Rn': 1.0, 'Rh': 2.0, 'O': 5.0}",FALSE
Nb2S5,"['Nb', 'S']","['Nb - Metal', 'S - Non-Metal']","[1.6, 2.58]",2,"{'Nb': 2.0, 'S': 5.0}",TRUE
InP3,"['In', 'P']","['In - Metal', 'P - Non-Metal']","[1.78, 2.19]",2,"{'In': 1.0, 'P': 3.0}",TRUE
ZnGaSe4Au4,"['Zn', 'Ga', 'Se', 'Au']","['Zn - Metal', 'Ga - Metal', 'Se - Non-Metal', 'Au - Metal']","[1.65, 1.81, 2.55, 2.54]",4,"{'Zn': 1.0, 'Ga': 1.0, 'Se': 4.0, 'Au': 4.0}",FALSE
HoO3Sb3Ta4,"['Ho', 'O', 'Sb', 'Ta']","['Ho - Metal', 'O - Non-Metal', 'Sb - Non-Metal', 'Ta - Metal']","[1.23, 3.44, 2.05, 1.5]",4,"{'Ho': 1.0, 'O': 3.0, 'Sb': 3.0, 'Ta': 4.0}",TRUE
HoPa2Se4,"['Ho', 'Pa', 'Se']","['Ho - Metal', 'Pa - Metal', 'Se - Non-Metal']","[1.23, 1.5, 2.55]",3,"{'Ho': 1.0, 'Pa': 2.0, 'Se': 4.0}",TRUE
ClAu5,"['Cl', 'Au']","['Cl - Non-Metal', 'Au - Metal']","[3.16, 2.54]",2,"{'Cl': 1.0, 'Au': 5.0}",FALSE
SSbV8,"['S', 'Sb', 'V']","['S - Non-Metal', 'Sb - Non-Metal', 'V - Metal']","[2.58, 2.05, 1.63]",3,"{'S': 1.0, 'Sb': 1.0, 'V': 8.0}",TRUE
P3Sb4,"['P', 'Sb']","['P - Non-Metal', 'Sb - Non-Metal']","[2.19, 2.05]",2,"{'P': 3.0, 'Sb': 4.0}",FALSE
Xe2Co3Mo7,"['Xe', 'Co', 'Mo']","['Xe - Non-Metal', 'Co - Metal', 'Mo - Metal']","[2.6, 1.88, 2.16]",3,"{'Xe': 2.0, 'Co': 3.0, 'Mo': 7.0}",FALSE
IrAs2,"['Ir', 'As']","['Ir - Metal', 'As - Non-Metal']","[2.2, 2.18]",2,"{'Ir': 1.0, 'As': 2.0}",FALSE
IFe4,"['I', 'Fe']","['I - Non-Metal', 'Fe - Metal']","[2.66, 1.83]",2,"{'I': 1.0, 'Fe': 4.0}",FALSE
BrH4,"['Br', 'H']","['Br - Non-Metal', 'H - Unknown']","[2.96, 2.2]",2,"{'Br': 1.0, 'H': 4.0}",FALSE
Tl2Ge3,"['Tl', 'Ge']","['Tl - Metal', 'Ge - Non-Metal']","[1.62, 2.01]",2,"{'Tl': 2.0, 'Ge': 3.0}",TRUE
IrS6,"['Ir', 'S']","['Ir - Metal', 'S - Non-Metal']","[2.2, 2.58]",2,"{'Ir': 1.0, 'S': 6.0}",FALSE
UN3,"['U', 'N']","['U - Metal', 'N - Non-Metal']","[1.38, 3.04]",2,"{'U': 1.0, 'N': 3.0}",FALSE
MnAs3,"['Mn', 'As']","['Mn - Metal', 'As - Non-Metal']","[1.55, 2.18]",2,"{'Mn': 1.0, 'As': 3.0}",TRUE
SeSi4,"['Se', 'Si']","['Se - Non-Metal', 'Si - Non-Metal']","[2.55, 1.9]",2,"{'Se': 1.0, 'Si': 4.0}",FALSE
BrTb,"['Br', 'Tb']","['Br - Non-Metal', 'Tb - Metal']","[2.96, 1.1]",2,"{'Br': 1.0, 'Tb': 1.0}",TRUE
FeBi3As4,"['Fe', 'Bi', 'As']","['Fe - Metal', 'Bi - Metal', 'As - Non-Metal']","[1.83, 2.02, 2.18]",3,"{'Fe': 1.0, 'Bi': 3.0, 'As': 4.0}",TRUE
MnF3Hg4,"['Mn', 'F', 'Hg']","['Mn - Metal', 'F - Non-Metal', 'Hg - Metal']","[1.55, 3.98, 2.0]",3,"{'Mn': 1.0, 'F': 3.0, 'Hg': 4.0}",FALSE
AsLaGe2Cl4Hf4,"['As', 'La', 'Ge', 'Cl', 'Hf']","['As - Non-Metal', 'La - Metal', 'Ge - Non-Metal', 'Cl - Non-Metal', 'Hf - Metal']","[2.18, 1.1, 2.01, 3.16, 1.3]",5,"{'As': 1.0, 'La': 1.0, 'Ge': 2.0, 'Cl': 4.0, 'Hf': 4.0}",TRUE
BiN3Ge4,"['Bi', 'N', 'Ge']","['Bi - Metal', 'N - Non-Metal', 'Ge - Non-Metal']","[2.02, 3.04, 2.01]",3,"{'Bi': 1.0, 'N': 3.0, 'Ge': 4.0}",FALSE
BrCr3,"['Br', 'Cr']","['Br - Non-Metal', 'Cr - Metal']","[2.96, 1.66]",2,"{'Br': 1.0, 'Cr': 3.0}",FALSE
XePr2Tc7,"['Xe', 'Pr', 'Tc']","['Xe - Non-Metal', 'Pr - Metal', 'Tc - Metal']","[2.6, 1.13, 1.9]",3,"{'Xe': 1.0, 'Pr': 2.0, 'Tc': 7.0}",TRUE
CaILu2C4Ga5,"['Ca', 'I', 'Lu', 'C', 'Ga']","['Ca - Metal', 'I - Non-Metal', 'Lu - Metal', 'C - Non-Metal', 'Ga - Metal']","[1.0, 2.66, 1.27, 2.55, 1.81]",5,"{'Ca': 1.0, 'I': 1.0, 'Lu': 2.0, 'C': 4.0, 'Ga': 5.0}",TRUE
Fe2Te5,"['Fe', 'Te']","['Fe - Metal', 'Te - Non-Metal']","[1.83, 2.1]",2,"{'Fe': 2.0, 'Te': 5.0}",TRUE
W3As4,"['W', 'As']","['W - Metal', 'As - Non-Metal']","[2.36, 2.18]",2,"{'W': 3.0, 'As': 4.0}",FALSE
YbSi3,"['Yb', 'Si']","['Yb - Metal', 'Si - Non-Metal']","[1.1, 1.9]",2,"{'Yb': 1.0, 'Si': 3.0}",TRUE
SmS3,"['Sm', 'S']","['Sm - Metal', 'S - Non-Metal']","[1.17, 2.58]",2,"{'Sm': 1.0, 'S': 3.0}",TRUE
XeHg3Fe7,"['Xe', 'Hg', 'Fe']","['Xe - Non-Metal', 'Hg - Metal', 'Fe - Metal']","[2.6, 2.0, 1.83]",3,"{'Xe': 1.0, 'Hg': 3.0, 'Fe': 7.0}",FALSE
SRh,"['S', 'Rh']","['S - Non-Metal', 'Rh - Metal']","[2.58, 2.28]",2,"{'S': 1.0, 'Rh': 1.0}",FALSE
SMn3,"['S', 'Mn']","['S - Non-Metal', 'Mn - Metal']","[2.58, 1.55]",2,"{'S': 1.0, 'Mn': 3.0}",TRUE
HfFe3Se3,"['Hf', 'Fe', 'Se']","['Hf - Metal', 'Fe - Metal', 'Se - Non-Metal']","[1.3, 1.83, 2.55]",3,"{'Hf': 1.0, 'Fe': 3.0, 'Se': 3.0}",TRUE
DyC3,"['Dy', 'C']","['Dy - Metal', 'C - Non-Metal']","[1.22, 2.55]",2,"{'Dy': 1.0, 'C': 3.0}",TRUE
PoRu2Sb5,"['Po', 'Ru', 'Sb']","['Po - Non-Metal', 'Ru - Metal', 'Sb - Non-Metal']","[2.0, 2.2, 2.05]",3,"{'Po': 1.0, 'Ru': 2.0, 'Sb': 5.0}",TRUE
TeTc2Ir2At3,"['Te', 'Tc', 'Ir', 'At']","['Te - Non-Metal', 'Tc - Metal', 'Ir - Metal', 'At - Non-Metal']","[2.1, 1.9, 2.2, 2.2]",4,"{'Te': 1.0, 'Tc': 2.0, 'Ir': 2.0, 'At': 3.0}",TRUE
ClCuTa6,"['Cl', 'Cu', 'Ta']","['Cl - Non-Metal', 'Cu - Metal', 'Ta - Metal']","[3.16, 1.9, 1.5]",3,"{'Cl': 1.0, 'Cu': 1.0, 'Ta': 6.0}",FALSE
PoCo4,"['Po', 'Co']","['Po - Non-Metal', 'Co - Metal']","[2.0, 1.88]",2,"{'Po': 1.0, 'Co': 4.0}",TRUE
PdXeOs7,"['Pd', 'Xe', 'Os']","['Pd - Metal', 'Xe - Non-Metal', 'Os - Metal']","[2.2, 2.6, 2.2]",3,"{'Pd': 1.0, 'Xe': 1.0, 'Os': 7.0}",FALSE
Si2Cu2Po3Au4,"['Si', 'Cu', 'Po', 'Au']","['Si - Non-Metal', 'Cu - Metal', 'Po - Non-Metal', 'Au - Metal']","[1.9, 1.9, 2.0, 2.54]",4,"{'Si': 2.0, 'Cu': 2.0, 'Po': 3.0, 'Au': 4.0}",TRUE
IIrTi7,"['I', 'Ir', 'Ti']","['I - Non-Metal', 'Ir - Metal', 'Ti - Metal']","[2.66, 2.2, 1.54]",3,"{'I': 1.0, 'Ir': 1.0, 'Ti': 7.0}",FALSE
ClPdTm3Pb4,"['Cl', 'Pd', 'Tm', 'Pb']","['Cl - Non-Metal', 'Pd - Metal', 'Tm - Metal', 'Pb - Metal']","[3.16, 2.2, 1.25, 2.33]",4,"{'Cl': 1.0, 'Pd': 1.0, 'Tm': 3.0, 'Pb': 4.0}",FALSE
SeTa6,"['Se', 'Ta']","['Se - Non-Metal', 'Ta - Metal']","[2.55, 1.5]",2,"{'Se': 1.0, 'Ta': 6.0}",TRUE
TcF2,"['Tc', 'F']","['Tc - Metal', 'F - Non-Metal']","[1.9, 3.98]",2,"{'Tc': 1.0, 'F': 2.0}",FALSE
F2Mo5Mg7,"['F', 'Mo', 'Mg']","['F - Non-Metal', 'Mo - Metal', 'Mg - Metal']","[3.98, 2.16, 1.31]",3,"{'F': 2.0, 'Mo': 5.0, 'Mg': 7.0}",FALSE
EsS3Zr3,"['Es', 'S', 'Zr']","['Es - Metal', 'S - Non-Metal', 'Zr - Metal']","[1.3, 2.58, 1.33]",3,"{'Es': 1.0, 'S': 3.0, 'Zr': 3.0}",TRUE
Ir2P5,"['Ir', 'P']","['Ir - Metal', 'P - Non-Metal']","[2.2, 2.19]",2,"{'Ir': 2.0, 'P': 5.0}",FALSE
BrHf5Tc6,"['Br', 'Hf', 'Tc']","['Br - Non-Metal', 'Hf - Metal', 'Tc - Metal']","[2.96, 1.3, 1.9]",3,"{'Br': 1.0, 'Hf': 5.0, 'Tc': 6.0}",TRUE
XeSi8,"['Xe', 'Si']","['Xe - Non-Metal', 'Si - Non-Metal']","[2.6, 1.9]",2,"{'Xe': 1.0, 'Si': 8.0}",FALSE
MoTe2Au2,"['Mo', 'Te', 'Au']","['Mo - Metal', 'Te - Non-Metal', 'Au - Metal']","[2.16, 2.1, 2.54]",3,"{'Mo': 1.0, 'Te': 2.0, 'Au': 2.0}",FALSE
GaSb,"['Ga', 'Sb']","['Ga - Metal', 'Sb - Non-Metal']","[1.81, 2.05]",2,"{'Ga': 1.0, 'Sb': 1.0}",TRUE
RhSi2,"['Rh', 'Si']","['Rh - Metal', 'Si - Non-Metal']","[2.28, 1.9]",2,"{'Rh': 1.0, 'Si': 2.0}",TRUE
Li2C2Po3,"['Li', 'C', 'Po']","['Li - Metal', 'C - Non-Metal', 'Po - Non-Metal']","[0.98, 2.55, 2.0]",3,"{'Li': 2.0, 'C': 2.0, 'Po': 3.0}",TRUE
Ge3Si4,"['Ge', 'Si']","['Ge - Non-Metal', 'Si - Non-Metal']","[2.01, 1.9]",2,"{'Ge': 3.0, 'Si': 4.0}",TRUE
TaSi2Br2Se5,"['Ta', 'Si', 'Br', 'Se']","['Ta - Metal', 'Si - Non-Metal', 'Br - Non-Metal', 'Se - Non-Metal']","[1.5, 1.9, 2.96, 2.55]",4,"{'Ta': 1.0, 'Si': 2.0, 'Br': 2.0, 'Se': 5.0}",FALSE
HMgBr2Pd3Ir5,"['H', 'Mg', 'Br', 'Pd', 'Ir']","['H - Unknown', 'Mg - Metal', 'Br - Non-Metal', 'Pd - Metal', 'Ir - Metal']","[2.2, 1.31, 2.96, 2.2, 2.2]",5,"{'H': 1.0, 'Mg': 1.0, 'Br': 2.0, 'Pd': 3.0, 'Ir': 5.0}",FALSE
AsTl5,"['As', 'Tl']","['As - Non-Metal', 'Tl - Metal']","[2.18, 1.62]",2,"{'As': 1.0, 'Tl': 5.0}",TRUE
TeGe2Sb3,"['Te', 'Ge', 'Sb']","['Te - Non-Metal', 'Ge - Non-Metal', 'Sb - Non-Metal']","[2.1, 2.01, 2.05]",3,"{'Te': 1.0, 'Ge': 2.0, 'Sb': 3.0}",TRUE
YbNi3Bi5,"['Yb', 'Ni', 'Bi']","['Yb - Metal', 'Ni - Metal', 'Bi - Metal']","[1.1, 1.91, 2.02]",3,"{'Yb': 1.0, 'Ni': 3.0, 'Bi': 5.0}",TRUE
BrAu2Tc5,"['Br', 'Au', 'Tc']","['Br - Non-Metal', 'Au - Metal', 'Tc - Metal']","[2.96, 2.54, 1.9]",3,"{'Br': 1.0, 'Au': 2.0, 'Tc': 5.0}",FALSE
PdDyI3Re6,"['Pd', 'Dy', 'I', 'Re']","['Pd - Metal', 'Dy - Metal', 'I - Non-Metal', 'Re - Metal']","[2.2, 1.22, 2.66, 1.9]",4,"{'Pd': 1.0, 'Dy': 1.0, 'I': 3.0, 'Re': 6.0}",TRUE
SeLuLrI4,"['Se', 'Lu', 'Lr', 'I']","['Se - Non-Metal', 'Lu - Metal', 'Lr - Metal', 'I - Non-Metal']","[2.55, 1.27, 1.3, 2.66]",4,"{'Se': 1.0, 'Lu': 1.0, 'Lr': 1.0, 'I': 4.0}",TRUE
CrAt4V5,"['Cr', 'At', 'V']","['Cr - Metal', 'At - Non-Metal', 'V - Metal']","[1.66, 2.2, 1.63]",3,"{'Cr': 1.0, 'At': 4.0, 'V': 5.0}",TRUE
Ge2Hg3,"['Ge', 'Hg']","['Ge - Non-Metal', 'Hg - Metal']","[2.01, 2.0]",2,"{'Ge': 2.0, 'Hg': 3.0}",TRUE
OCl2V7,"['O', 'Cl', 'V']","['O - Non-Metal', 'Cl - Non-Metal', 'V - Metal']","[3.44, 3.16, 1.63]",3,"{'O': 1.0, 'Cl': 2.0, 'V': 7.0}",FALSE
H2Po4Bk5,"['H', 'Po', 'Bk']","['H - Unknown', 'Po - Non-Metal', 'Bk - Metal']","[2.2, 2.0, 1.3]",3,"{'H': 2.0, 'Po': 4.0, 'Bk': 5.0}",TRUE
FeBr3Ca4,"['Fe', 'Br', 'Ca']","['Fe - Metal', 'Br - Non-Metal', 'Ca - Metal']","[1.83, 2.96, 1.0]",3,"{'Fe': 1.0, 'Br': 3.0, 'Ca': 4.0}",TRUE
Be2Hg3Se5,"['Be', 'Hg', 'Se']","['Be - Metal', 'Hg - Metal', 'Se - Non-Metal']","[1.57, 2.0, 2.55]",3,"{'Be': 2.0, 'Hg': 3.0, 'Se': 5.0}",TRUE
BrTi3Mn4,"['Br', 'Ti', 'Mn']","['Br - Non-Metal', 'Ti - Metal', 'Mn - Metal']","[2.96, 1.54, 1.55]",3,"{'Br': 1.0, 'Ti': 3.0, 'Mn': 4.0}",TRUE
IMg2Tl3,"['I', 'Mg', 'Tl']","['I - Non-Metal', 'Mg - Metal', 'Tl - Metal']","[2.66, 1.31, 1.62]",3,"{'I': 1.0, 'Mg': 2.0, 'Tl': 3.0}",TRUE
OsSe2,"['Os', 'Se']","['Os - Metal', 'Se - Non-Metal']","[2.2, 2.55]",2,"{'Os': 1.0, 'Se': 2.0}",FALSE
NMnCdTe2Er2,"['N', 'Mn', 'Cd', 'Te', 'Er']","['N - Non-Metal', 'Mn - Metal', 'Cd - Metal', 'Te - Non-Metal', 'Er - Metal']","[3.04, 1.55, 1.69, 2.1, 1.24]",5,"{'N': 1.0, 'Mn': 1.0, 'Cd': 1.0, 'Te': 2.0, 'Er': 2.0}",TRUE
PoAt2,"['Po', 'At']","['Po - Non-Metal', 'At - Non-Metal']","[2.0, 2.2]",2,"{'Po': 1.0, 'At': 2.0}",TRUE
SePo2,"['Se', 'Po']","['Se - Non-Metal', 'Po - Non-Metal']","[2.55, 2.0]",2,"{'Se': 1.0, 'Po': 2.0}",FALSE
Gd2Cl3V7,"['Gd', 'Cl', 'V']","['Gd - Metal', 'Cl - Non-Metal', 'V - Metal']","[1.2, 3.16, 1.63]",3,"{'Gd': 2.0, 'Cl': 3.0, 'V': 7.0}",TRUE
NiSe3Tb5,"['Ni', 'Se', 'Tb']","['Ni - Metal', 'Se - Non-Metal', 'Tb - Metal']","[1.91, 2.55, 1.1]",3,"{'Ni': 1.0, 'Se': 3.0, 'Tb': 5.0}",TRUE
ClGeMo2V8,"['Cl', 'Ge', 'Mo', 'V']","['Cl - Non-Metal', 'Ge - Non-Metal', 'Mo - Metal', 'V - Metal']","[3.16, 2.01, 2.16, 1.63]",4,"{'Cl': 1.0, 'Ge': 1.0, 'Mo': 2.0, 'V': 8.0}",FALSE
NP2Al5,"['N', 'P', 'Al']","['N - Non-Metal', 'P - Non-Metal', 'Al - Metal']","[3.04, 2.19, 1.61]",3,"{'N': 1.0, 'P': 2.0, 'Al': 5.0}",FALSE
TbW3Pt3Se5,"['Tb', 'W', 'Pt', 'Se']","['Tb - Metal', 'W - Metal', 'Pt - Metal', 'Se - Non-Metal']","[1.1, 2.36, 2.28, 2.55]",4,"{'Tb': 1.0, 'W': 3.0, 'Pt': 3.0, 'Se': 5.0}",TRUE
Po2Os3Si4,"['Po', 'Os', 'Si']","['Po - Non-Metal', 'Os - Metal', 'Si - Non-Metal']","[2.0, 2.2, 1.9]",3,"{'Po': 2.0, 'Os': 3.0, 'Si': 4.0}",TRUE
PaSe3Ti4,"['Pa', 'Se', 'Ti']","['Pa - Metal', 'Se - Non-Metal', 'Ti - Metal']","[1.5, 2.55, 1.54]",3,"{'Pa': 1.0, 'Se': 3.0, 'Ti': 4.0}",TRUE
ClTi6,"['Cl', 'Ti']","['Cl - Non-Metal', 'Ti - Metal']","[3.16, 1.54]",2,"{'Cl': 1.0, 'Ti': 6.0}",FALSE
SeF2Eu2,"['Se', 'F', 'Eu']","['Se - Non-Metal', 'F - Non-Metal', 'Eu - Metal']","[2.55, 3.98, 1.2]",3,"{'Se': 1.0, 'F': 2.0, 'Eu': 2.0}",FALSE
XeY2C7,"['Xe', 'Y', 'C']","['Xe - Non-Metal', 'Y - Metal', 'C - Non-Metal']","[2.6, 1.22, 2.55]",3,"{'Xe': 1.0, 'Y': 2.0, 'C': 7.0}",FALSE
Pt2Po3,"['Pt', 'Po']","['Pt - Metal', 'Po - Non-Metal']","[2.28, 2.0]",2,"{'Pt': 2.0, 'Po': 3.0}",FALSE