formula,Elements,Metal_NonMetal,Electronegativity,Num_Elements,Atomic_Composition,Is_Metal
Mo2Xe2Ru3Tl5,"['Mo', 'Xe', 'Ru', 'Tl']","['Mo - Metal', 'Xe - Non-Metal', 'Ru - Metal', 'Tl - Metal']","[2.16, 2.6, 2.2, 1.62]",4,"{'Mo': 2.0, 'Xe': 2.0, 'Ru': 3.0, 'Tl': 5.0}",FALSE
IFe2,"['I', 'Fe']","['I - Non-Metal', 'Fe - Metal']","[2.66, 1.83]",2,"{'I': 1.0, 'Fe': 2.0}",FALSE
BKF3,"['B', 'K', 'F']","['B - Non-Metal', 'K - Metal', 'F - Non-Metal']","[2.04, 0.82, 3.98]",3,"{'B': 1.0, 'K': 1.0, 'F': 3.0}",FALSE
TbSe5Tc8,"['Tb', 'Se', 'Tc']","['Tb - Metal', 'Se - Non-Metal', 'Tc - Metal']","[1.1, 2.55, 1.9]",3,"{'Tb': 1.0, 'Se': 5.0, 'Tc': 8.0}",TRUE
ScTaTm2Kr3Os5,"['Sc', 'Ta', 'Tm', 'Kr', 'Os']","['Sc - Metal', 'Ta - Metal', 'Tm - Metal', 'Kr - Non-Metal', 'Os - Metal']","[1.36, 1.5, 1.25, 3.0, 2.2]",5,"{'Sc': 1.0, 'Ta': 1.0, 'Tm': 2.0, 'Kr': 3.0, 'Os': 5.0}",TRUE
LuAg2F3Ni6,"['Lu', 'Ag', 'F', 'Ni']","['Lu - Metal', 'Ag - Metal', 'F - Non-Metal', 'Ni - Metal']","[1.27, 1.93, 3.98, 1.91]",4,"{'Lu': 1.0, 'Ag': 2.0, 'F': 3.0, 'Ni': 6.0}",FALSE
Po3Tc4,"['Po', 'Tc']","['Po - Non-Metal', 'Tc - Metal']","[2.0, 1.9]",2,"{'Po': 3.0, 'Tc': 4.0}",TRUE
PtRnMo3Pd5,"['Pt', 'Rn', 'Mo', 'Pd']","['Pt - Metal', 'Rn - Non-Metal', 'Mo - Metal', 'Pd - Metal']","[2.28, 2.2, 2.16, 2.2]",4,"{'Pt': 1.0, 'Rn': 1.0, 'Mo': 3.0, 'Pd': 5.0}",FALSE
Fe2As3Re3,"['Fe', 'As', 'Re']","['Fe - Metal', 'As - Non-Metal', 'Re - Metal']","[1.83, 2.18, 1.9]",3,"{'Fe': 2.0, 'As': 3.0, 'Re': 3.0}",TRUE
ITi2Rh5,"['I', 'Ti', 'Rh']","['I - Non-Metal', 'Ti - Metal', 'Rh - Metal']","[2.66, 1.54, 2.28]",3,"{'I': 1.0, 'Ti': 2.0, 'Rh': 5.0}",FALSE
NaZn2Ir2Pu2I3,"['Na', 'Zn', 'Ir', 'Pu', 'I']","['Na - Metal', 'Zn - Metal', 'Ir - Metal', 'Pu - Metal', 'I - Non-Metal']","[0.93, 1.65, 2.2, 1.28, 2.66]",5,"{'Na': 1.0, 'Zn': 2.0, 'Ir': 2.0, 'Pu': 2.0, 'I': 3.0}",TRUE
Os2Nd3S4,"['Os', 'Nd', 'S']","['Os - Metal', 'Nd - Metal', 'S - Non-Metal']","[2.2, 1.14, 2.58]",3,"{'Os': 2.0, 'Nd': 3.0, 'S': 4.0}",TRUE
TcAtH6Cr8,"['Tc', 'At', 'H', 'Cr']","['Tc - Metal', 'At - Non-Metal', 'H - Unknown', 'Cr - Metal']","[1.9, 2.2, 2.2, 1.66]",4,"{'Tc': 1.0, 'At': 1.0, 'H': 6.0, 'Cr': 8.0}",TRUE
Ho2Te3Fe6,"['Ho', 'Te', 'Fe']","['Ho - Metal', 'Te - Non-Metal', 'Fe - Metal']","[1.23, 2.1, 1.83]",3,"{'Ho': 2.0, 'Te': 3.0, 'Fe': 6.0}",TRUE
HgCo2Sb3,"['Hg', 'Co', 'Sb']","['Hg - Metal', 'Co - Metal', 'Sb - Non-Metal']","[2.0, 1.88, 2.05]",3,"{'Hg': 1.0, 'Co': 2.0, 'Sb': 3.0}",TRUE
GaC2Al3,"['Ga', 'C', 'Al']","['Ga - Metal', 'C - Non-Metal', 'Al - Metal']","[1.81, 2.55, 1.61]",3,"{'Ga': 1.0, 'C': 2.0, 'Al': 3.0}",TRUE
N2Kr2Cr5,"['N', 'Kr', 'Cr']","['N - Non-Metal', 'Kr - Non-Metal', 'Cr - Metal']","[3.04, 3.0, 1.66]",3,"{'N': 2.0, 'Kr': 2.0, 'Cr': 5.0}",FALSE
MnFe2Po4,"['Mn', 'Fe', 'Po']","['Mn - Metal', 'Fe - Metal', 'Po - Non-Metal']","[1.55, 1.83, 2.0]",3,"{'Mn': 1.0, 'Fe': 2.0, 'Po': 4.0}",TRUE
TcY3Po6,"['Tc', 'Y', 'Po']","['Tc - Metal', 'Y - Metal', 'Po - Non-Metal']","[1.9, 1.22, 2.0]",3,"{'Tc': 1.0, 'Y': 3.0, 'Po': 6.0}",TRUE
ClB2Ta5,"['Cl', 'B', 'Ta']","['Cl - Non-Metal', 'B - Non-Metal', 'Ta - Metal']","[3.16, 2.04, 1.5]",3,"{'Cl': 1.0, 'B': 2.0, 'Ta': 5.0}",FALSE
OsIn2Te2Tl5,"['Os', 'In', 'Te', 'Tl']","['Os - Metal', 'In - Metal', 'Te - Non-Metal', 'Tl - Metal']","[2.2, 1.78, 2.1, 1.62]",4,"{'Os': 1.0, 'In': 2.0, 'Te': 2.0, 'Tl': 5.0}",TRUE
MnP5,"['Mn', 'P']","['Mn - Metal', 'P - Non-Metal']","[1.55, 2.19]",2,"{'Mn': 1.0, 'P': 5.0}",TRUE
RnAt4Pt5,"['Rn', 'At', 'Pt']","['Rn - Non-Metal', 'At - Non-Metal', 'Pt - Metal']","[2.2, 2.2, 2.28]",3,"{'Rn': 1.0, 'At': 4.0, 'Pt': 5.0}",FALSE
OW2Os5,"['O', 'W', 'Os']","['O - Non-Metal', 'W - Metal', 'Os - Metal']","[3.44, 2.36, 2.2]",3,"{'O': 1.0, 'W': 2.0, 'Os': 5.0}",FALSE
ErBa2Br3Tl3,"['Er', 'Ba', 'Br', 'Tl']","['Er - Metal', 'Ba - Metal', 'Br - Non-Metal', 'Tl - Metal']","[1.24, 0.89, 2.96, 1.62]",4,"{'Er': 1.0, 'Ba': 2.0, 'Br': 3.0, 'Tl': 3.0}",TRUE
RhBk2S4,"['Rh', 'Bk', 'S']","['Rh - Metal', 'Bk - Metal', 'S - Non-Metal']","[2.28, 1.3, 2.58]",3,"{'Rh': 1.0, 'Bk': 2.0, 'S': 4.0}",TRUE
NaO2Ni5,"['Na', 'O', 'Ni']","['Na - Metal', 'O - Non-Metal', 'Ni - Metal']","[0.93, 3.44, 1.91]",3,"{'Na': 1.0, 'O': 2.0, 'Ni': 5.0}",TRUE
IrI2Ta5,"['Ir', 'I', 'Ta']","['Ir - Metal', 'I - Non-Metal', 'Ta - Metal']","[2.2, 2.66, 1.5]",3,"{'Ir': 1.0, 'I': 2.0, 'Ta': 5.0}",FALSE
HoSb2Ir4,"['Ho', 'Sb', 'Ir']","['Ho - Metal', 'Sb - Non-Metal', 'Ir - Metal']","[1.23, 2.05, 2.2]",3,"{'Ho': 1.0, 'Sb': 2.0, 'Ir': 4.0}",TRUE
PrHo3Se5,"['Pr', 'Ho', 'Se']","['Pr - Metal', 'Ho - Metal', 'Se - Non-Metal']","[1.13, 1.23, 2.55]",3,"{'Pr': 1.0, 'Ho': 3.0, 'Se': 5.0}",TRUE
KrC2Ho4Ni6,"['Kr', 'C', 'Ho', 'Ni']","['Kr - Non-Metal', 'C - Non-Metal', 'Ho - Metal', 'Ni - Metal']","[3.0, 2.55, 1.23, 1.91]",4,"{'Kr': 1.0, 'C': 2.0, 'Ho': 4.0, 'Ni': 6.0}",FALSE
BiKr2Pd3Re5,"['Bi', 'Kr', 'Pd', 'Re']","['Bi - Metal', 'Kr - Non-Metal', 'Pd - Metal', 'Re - Metal']","[2.02, 3.0, 2.2, 1.9]",4,"{'Bi': 1.0, 'Kr': 2.0, 'Pd': 3.0, 'Re': 5.0}",FALSE
O2Lr2Xe3Tc7,"['O', 'Lr', 'Xe', 'Tc']","['O - Non-Metal', 'Lr - Metal', 'Xe - Non-Metal', 'Tc - Metal']","[3.44, 1.3, 2.6, 1.9]",4,"{'O': 2.0, 'Lr': 2.0, 'Xe': 3.0, 'Tc': 7.0}",FALSE
BrHf4As7,"['Br', 'Hf', 'As']","['Br - Non-Metal', 'Hf - Metal', 'As - Non-Metal']","[2.96, 1.3, 2.18]",3,"{'Br': 1.0, 'Hf': 4.0, 'As': 7.0}",FALSE
CfBr3,"['Cf', 'Br']","['Cf - Metal', 'Br - Non-Metal']","[1.3, 2.96]",2,"{'Cf': 1.0, 'Br': 3.0}",FALSE
Cr3P4,"['Cr', 'P']","['Cr - Metal', 'P - Non-Metal']","[1.66, 2.19]",2,"{'Cr': 3.0, 'P': 4.0}",TRUE
Ge2Xe3C4Lu5,"['Ge', 'Xe', 'C', 'Lu']","['Ge - Non-Metal', 'Xe - Non-Metal', 'C - Non-Metal', 'Lu - Metal']","[2.01, 2.6, 2.55, 1.27]",4,"{'Ge': 2.0, 'Xe': 3.0, 'C': 4.0, 'Lu': 5.0}",FALSE
TiN2,"['Ti', 'N']","['Ti - Metal', 'N - Non-Metal']","[1.54, 3.04]",2,"{'Ti': 1.0, 'N': 2.0}",FALSE
AsXeTc8,"['As', 'Xe', 'Tc']","['As - Non-Metal', 'Xe - Non-Metal', 'Tc - Metal']","[2.18, 2.6, 1.9]",3,"{'As': 1.0, 'Xe': 1.0, 'Tc': 8.0}",FALSE
FP4Ga5,"['F', 'P', 'Ga']","['F - Non-Metal', 'P - Non-Metal', 'Ga - Metal']","[3.98, 2.19, 1.81]",3,"{'F': 1.0, 'P': 4.0, 'Ga': 5.0}",FALSE
TeGe2Fe4,"['Te', 'Ge', 'Fe']","['Te - Non-Metal', 'Ge - Non-Metal', 'Fe - Metal']","[2.1, 2.01, 1.83]",3,"{'Te': 1.0, 'Ge': 2.0, 'Fe': 4.0}",TRUE
MdW2I5,"['Md', 'W', 'I']","['Md - Metal', 'W - Metal', 'I - Non-Metal']","[1.3, 2.36, 2.66]",3,"{'Md': 1.0, 'W': 2.0, 'I': 5.0}",FALSE
NpCl2H4,"['Np', 'Cl', 'H']","['Np - Metal', 'Cl - Non-Metal', 'H - Unknown']","[1.36, 3.16, 2.2]",3,"{'Np': 1.0, 'Cl': 2.0, 'H': 4.0}",FALSE
PaSm2Te3,"['Pa', 'Sm', 'Te']","['Pa - Metal', 'Sm - Metal', 'Te - Non-Metal']","[1.5, 1.17, 2.1]",3,"{'Pa': 1.0, 'Sm': 2.0, 'Te': 3.0}",TRUE
NiSrTe2,"['Ni', 'Sr', 'Te']","['Ni - Metal', 'Sr - Metal', 'Te - Non-Metal']","[1.91, 0.95, 2.1]",3,"{'Ni': 1.0, 'Sr': 1.0, 'Te': 2.0}",TRUE
TePr,"['Te', 'Pr']","['Te - Non-Metal', 'Pr - Metal']","[2.1, 1.13]",2,"{'Te': 1.0, 'Pr': 1.0}",TRUE
PoO5,"['Po', 'O']","['Po - Non-Metal', 'O - Non-Metal']","[2.0, 3.44]",2,"{'Po': 1.0, 'O': 5.0}",FALSE
SiAs4,"['Si', 'As']","['Si - Non-Metal', 'As - Non-Metal']","[1.9, 2.18]",2,"{'Si': 1.0, 'As': 4.0}",TRUE
RuRe2Er3At5,"['Ru', 'Re', 'Er', 'At']","['Ru - Metal', 'Re - Metal', 'Er - Metal', 'At - Non-Metal']","[2.2, 1.9, 1.24, 2.2]",4,"{'Ru': 1.0, 'Re': 2.0, 'Er': 3.0, 'At': 5.0}",TRUE
O2Ru3Tl5,"['O', 'Ru', 'Tl']","['O - Non-Metal', 'Ru - Metal', 'Tl - Metal']","[3.44, 2.2, 1.62]",3,"{'O': 2.0, 'Ru': 3.0, 'Tl': 5.0}",FALSE
CfIr2Au2Rn2S5,"['Cf', 'Ir', 'Au', 'Rn', 'S']","['Cf - Metal', 'Ir - Metal', 'Au - Metal', 'Rn - Non-Metal', 'S - Non-Metal']","[1.3, 2.2, 2.54, 2.2, 2.58]",5,"{'Cf': 1.0, 'Ir': 2.0, 'Au': 2.0, 'Rn': 2.0, 'S': 5.0}",FALSE
V2Rh4Po5,"['V', 'Rh', 'Po']","['V - Metal', 'Rh - Metal', 'Po - Non-Metal']","[1.63, 2.28, 2.0]",3,"{'V': 2.0, 'Rh': 4.0, 'Po': 5.0}",TRUE
C3At3Y4Rh4,"['C', 'At', 'Y', 'Rh']","['C - Non-Metal', 'At - Non-Metal', 'Y - Metal', 'Rh - Metal']","[2.55, 2.2, 1.22, 2.28]",4,"{'C': 3.0, 'At': 3.0, 'Y': 4.0, 'Rh': 4.0}",TRUE
POs3Kr4,"['P', 'Os', 'Kr']","['P - Non-Metal', 'Os - Metal', 'Kr - Non-Metal']","[2.19, 2.2, 3.0]",3,"{'P': 1.0, 'Os': 3.0, 'Kr': 4.0}",FALSE
OScN2Nd2,"['O', 'Sc', 'N', 'Nd']","['O - Non-Metal', 'Sc - Metal', 'N - Non-Metal', 'Nd - Metal']","[3.44, 1.36, 3.04, 1.14]",4,"{'O': 1.0, 'Sc': 1.0, 'N': 2.0, 'Nd': 2.0}",FALSE
CeP3,"['Ce', 'P']","['Ce - Metal', 'P - Non-Metal']","[1.12, 2.19]",2,"{'Ce': 1.0, 'P': 3.0}",TRUE
PbI2Cd3,"['Pb', 'I', 'Cd']","['Pb - Metal', 'I - Non-Metal', 'Cd - Metal']","[2.33, 2.66, 1.69]",3,"{'Pb': 1.0, 'I': 2.0, 'Cd': 3.0}",FALSE
Ru3Bi7,"['Ru', 'Bi']","['Ru - Metal', 'Bi - Metal']","[2.2, 2.02]",2,"{'Ru': 3.0, 'Bi': 7.0}",FALSE
XeP3Gd3Au3,"['Xe', 'P', 'Gd', 'Au']","['Xe - Non-Metal', 'P - Non-Metal', 'Gd - Metal', 'Au - Metal']","[2.6, 2.19, 1.2, 2.54]",4,"{'Xe': 1.0, 'P': 3.0, 'Gd': 3.0, 'Au': 3.0}",FALSE
MoBi,"['Mo', 'Bi']","['Mo - Metal', 'Bi - Metal']","[2.16, 2.02]",2,"{'Mo': 1.0, 'Bi': 1.0}",TRUE
I2Ho2Cr3,"['I', 'Ho', 'Cr']","['I - Non-Metal', 'Ho - Metal', 'Cr - Metal']","[2.66, 1.23, 1.66]",3,"{'I': 2.0, 'Ho': 2.0, 'Cr': 3.0}",TRUE
NiEr2P4Hg4,"['Ni', 'Er', 'P', 'Hg']","['Ni - Metal', 'Er - Metal', 'P - Non-Metal', 'Hg - Metal']","[1.91, 1.24, 2.19, 2.0]",4,"{'Ni': 1.0, 'Er': 2.0, 'P': 4.0, 'Hg': 4.0}",TRUE
ZnP2As2Os2,"['Zn', 'P', 'As', 'Os']","['Zn - Metal', 'P - Non-Metal', 'As - Non-Metal', 'Os - Metal']","[1.65, 2.19, 2.18, 2.2]",4,"{'Zn': 1.0, 'P': 2.0, 'As': 2.0, 'Os': 2.0}",TRUE
MoCmTe4,"['Mo', 'Cm', 'Te']","['Mo - Metal', 'Cm - Metal', 'Te - Non-Metal']","[2.16, 1.3, 2.1]",3,"{'Mo': 1.0, 'Cm': 1.0, 'Te': 4.0}",TRUE
CfCl2Rh4,"['Cf', 'Cl', 'Rh']","['Cf - Metal', 'Cl - Non-Metal', 'Rh - Metal']","[1.3, 3.16, 2.28]",3,"{'Cf': 1.0, 'Cl': 2.0, 'Rh': 4.0}",FALSE
XeC2I2Pm3,"['Xe', 'C', 'I', 'Pm']","['Xe - Non-Metal', 'C - Non-Metal', 'I - Non-Metal', 'Pm - Metal']","[2.6, 2.55, 2.66, 1.13]",4,"{'Xe': 1.0, 'C': 2.0, 'I': 2.0, 'Pm': 3.0}",FALSE
GeN3Lu4,"['Ge', 'N', 'Lu']","['Ge - Non-Metal', 'N - Non-Metal', 'Lu - Metal']","[2.01, 3.04, 1.27]",3,"{'Ge': 1.0, 'N': 3.0, 'Lu': 4.0}",FALSE
I2Mn5,"['I', 'Mn']","['I - Non-Metal', 'Mn - Metal']","[2.66, 1.55]",2,"{'I': 2.0, 'Mn': 5.0}",FALSE
CrI,"['Cr', 'I']","['Cr - Metal', 'I - Non-Metal']","[1.66, 2.66]",2,"{'Cr': 1.0, 'I': 1.0}",FALSE
NiKr2Cr6,"['Ni', 'Kr', 'Cr']","['Ni - Metal', 'Kr - Non-Metal', 'Cr - Metal']","[1.91, 3.0, 1.66]",3,"{'Ni': 1.0, 'Kr': 2.0, 'Cr': 6.0}",FALSE
MnTa4O6,"['Mn', 'Ta', 'O']","['Mn - Metal', 'Ta - Metal', 'O - Non-Metal']","[1.55, 1.5, 3.44]",3,"{'Mn': 1.0, 'Ta': 4.0, 'O': 6.0}",FALSE
PmP2,"['Pm', 'P']","['Pm - Metal', 'P - Non-Metal']","[1.13, 2.19]",2,"{'Pm': 1.0, 'P': 2.0}",TRUE
GeAs4,"['Ge', 'As']","['Ge - Non-Metal', 'As - Non-Metal']","[2.01, 2.18]",2,"{'Ge': 1.0, 'As': 4.0}",TRUE
MnS6,"['Mn', 'S']","['Mn - Metal', 'S - Non-Metal']","[1.55, 2.58]",2,"{'Mn': 1.0, 'S': 6.0}",TRUE
SiBi2,"['Si', 'Bi']","['Si - Non-Metal', 'Bi - Metal']","[1.9, 2.02]",2,"{'Si': 1.0, 'Bi': 2.0}",TRUE
Cr2I5Nb7,"['Cr', 'I', 'Nb']","['Cr - Metal', 'I - Non-Metal', 'Nb - Metal']","[1.66, 2.66, 1.6]",3,"{'Cr': 2.0, 'I': 5.0, 'Nb': 7.0}",TRUE
GaCl2,"['Ga', 'Cl']","['Ga - Metal', 'Cl - Non-Metal']","[1.81, 3.16]",2,"{'Ga': 1.0, 'Cl': 2.0}",FALSE
NAt2,"['N', 'At']","['N - Non-Metal', 'At - Non-Metal']","[3.04, 2.2]",2,"{'N': 1.0, 'At': 2.0}",FALSE
ScSnTe,"['Sc', 'Sn', 'Te']","['Sc - Metal', 'Sn - Metal', 'Te - Non-Metal']","[1.36, 1.96, 2.1]",3,"{'Sc': 1.0, 'Sn': 1.0, 'Te': 1.0}",TRUE
C2H3Mo5,"['C', 'H', 'Mo']","['C - Non-Metal', 'H - Unknown', 'Mo - Metal']","[2.55, 2.2, 2.16]",3,"{'C': 2.0, 'H': 3.0, 'Mo': 5.0}",FALSE
VPdSb3,"['V', 'Pd', 'Sb']","['V - Metal', 'Pd - Metal', 'Sb - Non-Metal']","[1.63, 2.2, 2.05]",3,"{'V': 1.0, 'Pd': 1.0, 'Sb': 3.0}",TRUE
TePrPo4,"['Te', 'Pr', 'Po']","['Te - Non-Metal', 'Pr - Metal', 'Po - Non-Metal']","[2.1, 1.13, 2.0]",3,"{'Te': 1.0, 'Pr': 1.0, 'Po': 4.0}",TRUE
Tc2K3At3,"['Tc', 'K', 'At']","['Tc - Metal', 'K - Metal', 'At - Non-Metal']","[1.9, 0.82, 2.2]",3,"{'Tc': 2.0, 'K': 3.0, 'At': 3.0}",TRUE
Be2Po2S3,"['Be', 'Po', 'S']","['Be - Metal', 'Po - Non-Metal', 'S - Non-Metal']","[1.57, 2.0, 2.58]",3,"{'Be': 2.0, 'Po': 2.0, 'S': 3.0}",TRUE
PtTe2Ce2F3,"['Pt', 'Te', 'Ce', 'F']","['Pt - Metal', 'Te - Non-Metal', 'Ce - Metal', 'F - Non-Metal']","[2.28, 2.1, 1.12, 3.98]",4,"{'Pt': 1.0, 'Te': 2.0, 'Ce': 2.0, 'F': 3.0}",FALSE
Si3At4,"['Si', 'At']","['Si - Non-Metal', 'At - Non-Metal']","[1.9, 2.2]",2,"{'Si': 3.0, 'At': 4.0}",TRUE
Md2Te3Tc7,"['Md', 'Te', 'Tc']","['Md - Metal', 'Te - Non-Metal', 'Tc - Metal']","[1.3, 2.1, 1.9]",3,"{'Md': 2.0, 'Te': 3.0, 'Tc': 7.0}",TRUE
SeHo,"['Se', 'Ho']","['Se - Non-Metal', 'Ho - Metal']","[2.55, 1.23]",2,"{'Se': 1.0, 'Ho': 1.0}",TRUE
SePt,"['Se', 'Pt']","['Se - Non-Metal', 'Pt - Metal']","[2.55, 2.28]",2,"{'Se': 1.0, 'Pt': 1.0}",FALSE
Br2Ru7,"['Br', 'Ru']","['Br - Non-Metal', 'Ru - Metal']","[2.96, 2.2]",2,"{'Br': 2.0, 'Ru': 7.0}",FALSE
As3P5,"['As', 'P']","['As - Non-Metal', 'P - Non-Metal']","[2.18, 2.19]",2,"{'As': 3.0, 'P': 5.0}",FALSE
BKr2Tl4W5,"['B', 'Kr', 'Tl', 'W']","['B - Non-Metal', 'Kr - Non-Metal', 'Tl - Metal', 'W - Metal']","[2.04, 3.0, 1.62, 2.36]",4,"{'B': 1.0, 'Kr': 2.0, 'Tl': 4.0, 'W': 5.0}",FALSE
IrCl5,"['Ir', 'Cl']","['Ir - Metal', 'Cl - Non-Metal']","[2.2, 3.16]",2,"{'Ir': 1.0, 'Cl': 5.0}",FALSE
SbMn3Ga3,"['Sb', 'Mn', 'Ga']","['Sb - Non-Metal', 'Mn - Metal', 'Ga - Metal']","[2.05, 1.55, 1.81]",3,"{'Sb': 1.0, 'Mn': 3.0, 'Ga': 3.0}",TRUE
XeP2Ta6,"['Xe', 'P', 'Ta']","['Xe - Non-Metal', 'P - Non-Metal', 'Ta - Metal']","[2.6, 2.19, 1.5]",3,"{'Xe': 1.0, 'P': 2.0, 'Ta': 6.0}",TRUE
RuCl4,"['Ru', 'Cl']","['Ru - Metal', 'Cl - Non-Metal']","[2.2, 3.16]",2,"{'Ru': 1.0, 'Cl': 4.0}",FALSE
OGe4Ir6,"['O', 'Ge', 'Ir']","['O - Non-Metal', 'Ge - Non-Metal', 'Ir - Metal']","[3.44, 2.01, 2.2]",3,"{'O': 1.0, 'Ge': 4.0, 'Ir': 6.0}",FALSE
TlAl2Te2Re5,"['Tl', 'Al', 'Te', 'Re']","['Tl - Metal', 'Al - Metal', 'Te - Non-Metal', 'Re - Metal']","[1.62, 1.61, 2.1, 1.9]",4,"{'Tl': 1.0, 'Al': 2.0, 'Te': 2.0, 'Re': 5.0}",TRUE
GdBr2Te2Be4,"['Gd', 'Br', 'Te', 'Be']","['Gd - Metal', 'Br - Non-Metal', 'Te - Non-Metal', 'Be - Metal']","[1.2, 2.96, 2.1, 1.57]",4,"{'Gd': 1.0, 'Br': 2.0, 'Te': 2.0, 'Be': 4.0}",TRUE
Br2Pd3H4,"['Br', 'Pd', 'H']","['Br - Non-Metal', 'Pd - Metal', 'H - Unknown']","[2.96, 2.2, 2.2]",3,"{'Br': 2.0, 'Pd': 3.0, 'H': 4.0}",FALSE
RuRh2As6,"['Ru', 'Rh', 'As']","['Ru - Metal', 'Rh - Metal', 'As - Non-Metal']","[2.2, 2.28, 2.18]",3,"{'Ru': 1.0, 'Rh': 2.0, 'As': 6.0}",FALSE
NNo2Te4,"['N', 'No', 'Te']","['N - Non-Metal', 'No - Metal', 'Te - Non-Metal']","[3.04, 1.3, 2.1]",3,"{'N': 1.0, 'No': 2.0, 'Te': 4.0}",FALSE
Ge2Te2Zr5,"['Ge', 'Te', 'Zr']","['Ge - Non-Metal', 'Te - Non-Metal', 'Zr - Metal']","[2.01, 2.1, 1.33]",3,"{'Ge': 2.0, 'Te': 2.0, 'Zr': 5.0}",TRUE
NpN3,"['Np', 'N']","['Np - Metal', 'N - Non-Metal']","[1.36, 3.04]",2,"{'Np': 1.0, 'N': 3.0}",FALSE
ZrN4,"['Zr', 'N']","['Zr - Metal', 'N - Non-Metal']","[1.33, 3.04]",2,"{'Zr': 1.0, 'N': 4.0}",FALSE
SeTaPo4,"['Se', 'Ta', 'Po']","['Se - Non-Metal', 'Ta - Metal', 'Po - Non-Metal']","[2.55, 1.5, 2.0]",3,"{'Se': 1.0, 'Ta': 1.0, 'Po': 4.0}",TRUE
BiPoH2,"['Bi', 'Po', 'H']","['Bi - Metal', 'Po - Non-Metal', 'H - Unknown']","[2.02, 2.0, 2.2]",3,"{'Bi': 1.0, 'Po': 1.0, 'H': 2.0}",TRUE
Ni2Pu3Te4Ta4,"['Ni', 'Pu', 'Te', 'Ta']","['Ni - Metal', 'Pu - Metal', 'Te - Non-Metal', 'Ta - Metal']","[1.91, 1.28, 2.1, 1.5]",4,"{'Ni': 2.0, 'Pu': 3.0, 'Te': 4.0, 'Ta': 4.0}",TRUE
WPtBi3,"['W', 'Pt', 'Bi']","['W - Metal', 'Pt - Metal', 'Bi - Metal']","[2.36, 2.28, 2.02]",3,"{'W': 1.0, 'Pt': 1.0, 'Bi': 3.0}",FALSE
CrZr2Br4,"['Cr', 'Zr', 'Br']","['Cr - Metal', 'Zr - Metal', 'Br - Non-Metal']","[1.66, 1.33, 2.96]",3,"{'Cr': 1.0, 'Zr': 2.0, 'Br': 4.0}",TRUE
PoCu2,"['Po', 'Cu']","['Po - Non-Metal', 'Cu - Metal']","[2.0, 1.9]",2,"{'Po': 1.0, 'Cu': 2.0}",TRUE
SiTiTe4Os6,"['Si', 'Ti', 'Te', 'Os']","['Si - Non-Metal', 'Ti - Metal', 'Te - Non-Metal', 'Os - Metal']","[1.9, 1.54, 2.1, 2.2]",4,"{'Si': 1.0, 'Ti': 1.0, 'Te': 4.0, 'Os': 6.0}",TRUE
P2Kr2W3Cd4,"['P', 'Kr', 'W', 'Cd']","['P - Non-Metal', 'Kr - Non-Metal', 'W - Metal', 'Cd - Metal']","[2.19, 3.0, 2.36, 1.69]",4,"{'P': 2.0, 'Kr': 2.0, 'W': 3.0, 'Cd': 4.0}",FALSE
H2N2Pb2Se3,"['H', 'N', 'Pb', 'Se']","['H - Unknown', 'N - Non-Metal', 'Pb - Metal', 'Se - Non-Metal']","[2.2, 3.04, 2.33, 2.55]",4,"{'H': 2.0, 'N': 2.0, 'Pb': 2.0, 'Se': 3.0}",FALSE
AsZrGa2,"['As', 'Zr', 'Ga']","['As - Non-Metal', 'Zr - Metal', 'Ga - Metal']","[2.18, 1.33, 1.81]",3,"{'As': 1.0, 'Zr': 1.0, 'Ga': 2.0}",TRUE
CoIPm2H5,"['Co', 'I', 'Pm', 'H']","['Co - Metal', 'I - Non-Metal', 'Pm - Metal', 'H - Unknown']","[1.88, 2.66, 1.13, 2.2]",4,"{'Co': 1.0, 'I': 1.0, 'Pm': 2.0, 'H': 5.0}",TRUE
CuC2,"['Cu', 'C']","['Cu - Metal', 'C - Non-Metal']","[1.9, 2.55]",2,"{'Cu': 1.0, 'C': 2.0}",FALSE
XeW3,"['Xe', 'W']","['Xe - Non-Metal', 'W - Metal']","[2.6, 2.36]",2,"{'Xe': 1.0, 'W': 3.0}",FALSE
CuBrPo2,"['Cu', 'Br', 'Po']","['Cu - Metal', 'Br - Non-Metal', 'Po - Non-Metal']","[1.9, 2.96, 2.0]",3,"{'Cu': 1.0, 'Br': 1.0, 'Po': 2.0}",FALSE
SbBr3,"['Sb', 'Br']","['Sb - Non-Metal', 'Br - Non-Metal']","[2.05, 2.96]",2,"{'Sb': 1.0, 'Br': 3.0}",FALSE
Sb4Si5,"['Sb', 'Si']","['Sb - Non-Metal', 'Si - Non-Metal']","[2.05, 1.9]",2,"{'Sb': 4.0, 'Si': 5.0}",TRUE
ZnHo2I6,"['Zn', 'Ho', 'I']","['Zn - Metal', 'Ho - Metal', 'I - Non-Metal']","[1.65, 1.23, 2.66]",3,"{'Zn': 1.0, 'Ho': 2.0, 'I': 6.0}",TRUE
DyS2,"['Dy', 'S']","['Dy - Metal', 'S - Non-Metal']","[1.22, 2.58]",2,"{'Dy': 1.0, 'S': 2.0}",TRUE
YSbReAt,"['Y', 'Sb', 'Re', 'At']","['Y - Metal', 'Sb - Non-Metal', 'Re - Metal', 'At - Non-Metal']","[1.22, 2.05, 1.9, 2.2]",4,"{'Y': 1.0, 'Sb': 1.0, 'Re': 1.0, 'At': 1.0}",TRUE
Ti2Kr3Mn7,"['Ti', 'Kr', 'Mn']","['Ti - Metal', 'Kr - Non-Metal', 'Mn - Metal']","[1.54, 3.0, 1.55]",3,"{'Ti': 2.0, 'Kr': 3.0, 'Mn': 7.0}",TRUE
MgRh2Kr3Si4,"['Mg', 'Rh', 'Kr', 'Si']","['Mg - Metal', 'Rh - Metal', 'Kr - Non-Metal', 'Si - Non-Metal']","[1.31, 2.28, 3.0, 1.9]",4,"{'Mg': 1.0, 'Rh': 2.0, 'Kr': 3.0, 'Si': 4.0}",FALSE
IrBi3Ti4,"['Ir', 'Bi', 'Ti']","['Ir - Metal', 'Bi - Metal', 'Ti - Metal']","[2.2, 2.02, 1.54]",3,"{'Ir': 1.0, 'Bi': 3.0, 'Ti': 4.0}",TRUE
CRhB2Dy2S3,"['C', 'Rh', 'B', 'Dy', 'S']","['C - Non-Metal', 'Rh - Metal', 'B - Non-Metal', 'Dy - Metal', 'S - Non-Metal']","[2.55, 2.28, 2.04, 1.22, 2.58]",5,"{'C': 1.0, 'Rh': 1.0, 'B': 2.0, 'Dy': 2.0, 'S': 3.0}",FALSE
CPr2Bi4,"['C', 'Pr', 'Bi']","['C - Non-Metal', 'Pr - Metal', 'Bi - Metal']","[2.55, 1.13, 2.02]",3,"{'C': 1.0, 'Pr': 2.0, 'Bi': 4.0}",TRUE
PKr2Pt6,"['P', 'Kr', 'Pt']","['P - Non-Metal', 'Kr - Non-Metal', 'Pt - Metal']","[2.19, 3.0, 2.28]",3,"{'P': 1.0, 'Kr': 2.0, 'Pt': 6.0}",FALSE
Sm2Ir2Po5,"['Sm', 'Ir', 'Po']","['Sm - Metal', 'Ir - Metal', 'Po - Non-Metal']","[1.17, 2.2, 2.0]",3,"{'Sm': 2.0, 'Ir': 2.0, 'Po': 5.0}",TRUE
NiAt,"['Ni', 'At']","['Ni - Metal', 'At - Non-Metal']","[1.91, 2.2]",2,"{'Ni': 1.0, 'At': 1.0}",TRUE
SiAg,"['Si', 'Ag']","['Si - Non-Metal', 'Ag - Metal']","[1.9, 1.93]",2,"{'Si': 1.0, 'Ag': 1.0}",TRUE
Se2B3Cl3Re8,"['Se', 'B', 'Cl', 'Re']","['Se - Non-Metal', 'B - Non-Metal', 'Cl - Non-Metal', 'Re - Metal']","[2.55, 2.04, 3.16, 1.9]",4,"{'Se': 2.0, 'B': 3.0, 'Cl': 3.0, 'Re': 8.0}",FALSE
PdAgN2,"['Pd', 'Ag', 'N']","['Pd - Metal', 'Ag - Metal', 'N - Non-Metal']","[2.2, 1.93, 3.04]",3,"{'Pd': 1.0, 'Ag': 1.0, 'N': 2.0}",FALSE
WS5,"['W', 'S']","['W - Metal', 'S - Non-Metal']","[2.36, 2.58]",2,"{'W': 1.0, 'S': 5.0}",FALSE
ZrTbBr2H3,"['Zr', 'Tb', 'Br', 'H']","['Zr - Metal', 'Tb - Metal', 'Br - Non-Metal', 'H - Unknown']","[1.33, 1.1, 2.96, 2.2]",4,"{'Zr': 1.0, 'Tb': 1.0, 'Br': 2.0, 'H': 3.0}",TRUE
ClTi2W3Li6,"['Cl', 'Ti', 'W', 'Li']","['Cl - Non-Metal', 'Ti - Metal', 'W - Metal', 'Li - Metal']","[3.16, 1.54, 2.36, 0.98]",4,"{'Cl': 1.0, 'Ti': 2.0, 'W': 3.0, 'Li': 6.0}",TRUE
PmS3,"['Pm', 'S']","['Pm - Metal', 'S - Non-Metal']","[1.13, 2.58]",2,"{'Pm': 1.0, 'S': 3.0}",TRUE
Si3Mo3F4Ta5,"['Si', 'Mo', 'F', 'Ta']","['Si - Non-Metal', 'Mo - Metal', 'F - Non-Metal', 'Ta - Metal']","[1.9, 2.16, 3.98, 1.5]",4,"{'Si': 3.0, 'Mo': 3.0, 'F': 4.0, 'Ta': 5.0}",FALSE